2049
 Atoms. Timestep: 1
1 -14.08 -14.08 -14.08
1 -12.32 -12.32 -14.08
1 -12.32 -14.08 -12.32
1 -14.08 -12.32 -12.32
1 -10.56 -14.08 -14.08
1 -8.8 -12.32 -14.08
1 -8.8 -14.08 -12.32
1 -10.56 -12.32 -12.32
1 -7.04 -14.08 -14.08
1 -5.28 -12.32 -14.08
1 -5.28 -14.08 -12.32
1 -7.04 -12.32 -12.32
1 -3.52 -14.08 -14.08
1 -1.76 -12.32 -14.08
1 -1.76 -14.08 -12.32
1 -3.52 -12.32 -12.32
1 -14.08 -10.56 -14.08
1 -12.32 -8.8 -14.08
1 -12.32 -10.56 -12.32
1 -14.08 -8.8 -12.32
1 -10.56 -10.56 -14.08
1 -8.8 -8.8 -14.08
1 -8.8 -10.56 -12.32
1 -10.56 -8.8 -12.32
1 -7.04 -10.56 -14.08
1 -5.28 -8.8 -14.08
1 -5.28 -10.56 -12.32
1 -7.04 -8.8 -12.32
1 -3.52 -10.56 -14.08
1 -1.76 -8.8 -14.08
1 -1.76 -10.56 -12.32
1 -3.52 -8.8 -12.32
1 -14.08 -7.04 -14.08
1 -12.32 -5.28 -14.08
1 -12.32 -7.04 -12.32
1 -14.08 -5.28 -12.32
1 -10.56 -7.04 -14.08
1 -8.8 -5.28 -14.08
1 -8.8 -7.04 -12.32
1 -10.56 -5.28 -12.32
1 -7.04 -7.04 -14.08
1 -5.28 -5.28 -14.08
1 -5.28 -7.04 -12.32
1 -7.04 -5.28 -12.32
1 -3.52 -7.04 -14.08
1 -1.76 -5.28 -14.08
1 -1.76 -7.04 -12.32
1 -3.52 -5.28 -12.32
1 -14.08 -3.52 -14.08
1 -12.32 -1.76 -14.08
1 -12.32 -3.52 -12.32
1 -14.08 -1.76 -12.32
1 -10.56 -3.52 -14.08
1 -8.8 -1.76 -14.08
1 -8.8 -3.52 -12.32
1 -10.56 -1.76 -12.32
1 -7.04 -3.52 -14.08
1 -5.28 -1.76 -14.08
1 -5.28 -3.52 -12.32
1 -7.04 -1.76 -12.32
1 -3.52 -3.52 -14.08
1 -1.76 -1.76 -14.08
1 -1.76 -3.52 -12.32
1 -3.52 -1.76 -12.32
1 -14.08 -14.08 -10.56
1 -12.32 -12.32 -10.56
1 -12.32 -14.08 -8.8
1 -14.08 -12.32 -8.8
1 -10.56 -14.08 -10.56
1 -8.8 -12.32 -10.56
1 -8.8 -14.08 -8.8
1 -10.56 -12.32 -8.8
1 -7.04 -14.08 -10.56
1 -5.28 -12.32 -10.56
1 -5.28 -14.08 -8.8
1 -7.04 -12.32 -8.8
1 -3.52 -14.08 -10.56
1 -1.76 -12.32 -10.56
1 -1.76 -14.08 -8.8
1 -3.52 -12.32 -8.8
1 -14.08 -10.56 -10.56
1 -12.32 -8.8 -10.56
1 -12.32 -10.56 -8.8
1 -14.08 -8.8 -8.8
1 -10.56 -10.56 -10.56
1 -8.8 -8.8 -10.56
1 -8.8 -10.56 -8.8
1 -10.56 -8.8 -8.8
1 -7.04 -10.56 -10.56
1 -5.28 -8.8 -10.56
1 -5.28 -10.56 -8.8
1 -7.04 -8.8 -8.8
1 -3.52 -10.56 -10.56
1 -1.76 -8.8 -10.56
1 -1.76 -10.56 -8.8
1 -3.52 -8.8 -8.8
1 -14.08 -7.04 -10.56
1 -12.32 -5.28 -10.56
1 -12.32 -7.04 -8.8
1 -14.08 -5.28 -8.8
1 -10.56 -7.04 -10.56
1 -8.8 -5.28 -10.56
1 -8.8 -7.04 -8.8
1 -10.56 -5.28 -8.8
1 -7.04 -7.04 -10.56
1 -5.28 -5.28 -10.56
1 -5.28 -7.04 -8.8
1 -7.04 -5.28 -8.8
1 -3.52 -7.04 -10.56
1 -1.76 -5.28 -10.56
1 -1.76 -7.04 -8.8
1 -3.52 -5.28 -8.8
1 -14.08 -3.52 -10.56
1 -12.32 -1.76 -10.56
1 -12.32 -3.52 -8.8
1 -14.08 -1.76 -8.8
1 -10.56 -3.52 -10.56
1 -8.8 -1.76 -10.56
1 -8.8 -3.52 -8.8
1 -10.56 -1.76 -8.8
1 -7.04 -3.52 -10.56
1 -5.28 -1.76 -10.56
1 -5.28 -3.52 -8.8
1 -7.04 -1.76 -8.8
1 -3.52 -3.52 -10.56
1 -1.76 -1.76 -10.56
1 -1.76 -3.52 -8.8
1 -3.52 -1.76 -8.8
1 -14.08 -14.08 -7.04
1 -12.32 -12.32 -7.04
1 -12.32 -14.08 -5.28
1 -14.08 -12.32 -5.28
1 -10.56 -14.08 -7.04
1 -8.8 -12.32 -7.04
1 -8.8 -14.08 -5.28
1 -10.56 -12.32 -5.28
1 -7.04 -14.08 -7.04
1 -5.28 -12.32 -7.04
1 -5.28 -14.08 -5.28
1 -7.04 -12.32 -5.28
1 -3.52 -14.08 -7.04
1 -1.76 -12.32 -7.04
1 -1.76 -14.08 -5.28
1 -3.52 -12.32 -5.28
1 -14.08 -10.56 -7.04
1 -12.32 -8.8 -7.04
1 -12.32 -10.56 -5.28
1 -14.08 -8.8 -5.28
1 -10.56 -10.56 -7.04
1 -8.8 -8.8 -7.04
1 -8.8 -10.56 -5.28
1 -10.56 -8.8 -5.28
1 -7.04 -10.56 -7.04
1 -5.28 -8.8 -7.04
1 -5.28 -10.56 -5.28
1 -7.04 -8.8 -5.28
1 -3.52 -10.56 -7.04
1 -1.76 -8.8 -7.04
1 -1.76 -10.56 -5.28
1 -3.52 -8.8 -5.28
1 -14.08 -7.04 -7.04
1 -12.32 -5.28 -7.04
1 -12.32 -7.04 -5.28
1 -14.08 -5.28 -5.28
1 -10.56 -7.04 -7.04
1 -8.8 -5.28 -7.04
1 -8.8 -7.04 -5.28
1 -10.56 -5.28 -5.28
1 -7.04 -7.04 -7.04
1 -5.28 -5.28 -7.04
1 -5.28 -7.04 -5.28
1 -7.04 -5.28 -5.28
1 -3.52 -7.04 -7.04
1 -1.76 -5.28 -7.04
1 -1.76 -7.04 -5.28
1 -3.52 -5.28 -5.28
1 -14.08 -3.52 -7.04
1 -12.32 -1.76 -7.04
1 -12.32 -3.52 -5.28
1 -14.08 -1.76 -5.28
1 -10.56 -3.52 -7.04
1 -8.8 -1.76 -7.04
1 -8.8 -3.52 -5.28
1 -10.56 -1.76 -5.28
1 -7.04 -3.52 -7.04
1 -5.28 -1.76 -7.04
1 -5.28 -3.52 -5.28
1 -7.04 -1.76 -5.28
1 -3.52 -3.52 -7.04
1 -1.76 -1.76 -7.04
1 -1.76 -3.52 -5.28
1 -3.52 -1.76 -5.28
1 -14.08 -14.08 -3.52
1 -12.32 -12.32 -3.52
1 -12.32 -14.08 -1.76
1 -14.08 -12.32 -1.76
1 -10.56 -14.08 -3.52
1 -8.8 -12.32 -3.52
1 -8.8 -14.08 -1.76
1 -10.56 -12.32 -1.76
1 -7.04 -14.08 -3.52
1 -5.28 -12.32 -3.52
1 -5.28 -14.08 -1.76
1 -7.04 -12.32 -1.76
1 -3.52 -14.08 -3.52
1 -1.76 -12.32 -3.52
1 -1.76 -14.08 -1.76
1 -3.52 -12.32 -1.76
1 -14.08 -10.56 -3.52
1 -12.32 -8.8 -3.52
1 -12.32 -10.56 -1.76
1 -14.08 -8.8 -1.76
1 -10.56 -10.56 -3.52
1 -8.8 -8.8 -3.52
1 -8.8 -10.56 -1.76
1 -10.56 -8.8 -1.76
1 -7.04 -10.56 -3.52
1 -5.28 -8.8 -3.52
1 -5.28 -10.56 -1.76
1 -7.04 -8.8 -1.76
1 -3.52 -10.56 -3.52
1 -1.76 -8.8 -3.52
1 -1.76 -10.56 -1.76
1 -3.52 -8.8 -1.76
1 -14.08 -7.04 -3.52
1 -12.32 -5.28 -3.52
1 -12.32 -7.04 -1.76
1 -14.08 -5.28 -1.76
1 -10.56 -7.04 -3.52
1 -8.8 -5.28 -3.52
1 -8.8 -7.04 -1.76
1 -10.56 -5.28 -1.76
1 -7.04 -7.04 -3.52
1 -5.28 -5.28 -3.52
1 -5.28 -7.04 -1.76
1 -7.04 -5.28 -1.76
1 -3.52 -7.04 -3.52
1 -1.76 -5.28 -3.52
1 -1.76 -7.04 -1.76
1 -3.52 -5.28 -1.76
1 -14.08 -3.52 -3.52
1 -12.32 -1.76 -3.52
1 -12.32 -3.52 -1.76
1 -14.08 -1.76 -1.76
1 -10.56 -3.52 -3.52
1 -8.8 -1.76 -3.52
1 -8.8 -3.52 -1.76
1 -10.56 -1.76 -1.76
1 -7.04 -3.52 -3.52
1 -5.28 -1.76 -3.52
1 -5.28 -3.52 -1.76
1 -7.04 -1.76 -1.76
1 -3.52 -3.52 -3.52
1 -1.76 -1.76 -3.52
1 -1.76 -3.52 -1.76
1 -3.52 -1.76 -1.76
1 -14.08 -14.08 0
1 -12.32 -12.32 0
1 -12.32 -14.08 1.76
1 -14.08 -12.32 1.76
1 -10.56 -14.08 0
1 -8.8 -12.32 0
1 -8.8 -14.08 1.76
1 -10.56 -12.32 1.76
1 -7.04 -14.08 0
1 -5.28 -12.32 0
1 -5.28 -14.08 1.76
1 -7.04 -12.32 1.76
1 -3.52 -14.08 0
1 -1.76 -12.32 0
1 -1.76 -14.08 1.76
1 -3.52 -12.32 1.76
1 -14.08 -10.56 0
1 -12.32 -8.8 0
1 -12.32 -10.56 1.76
1 -14.08 -8.8 1.76
1 -10.56 -10.56 0
1 -8.8 -8.8 0
1 -8.8 -10.56 1.76
1 -10.56 -8.8 1.76
1 -7.04 -10.56 0
1 -5.28 -8.8 0
1 -5.28 -10.56 1.76
1 -7.04 -8.8 1.76
1 -3.52 -10.56 0
1 -1.76 -8.8 0
1 -1.76 -10.56 1.76
1 -3.52 -8.8 1.76
1 -14.08 -7.04 0
1 -12.32 -5.28 0
1 -12.32 -7.04 1.76
1 -14.08 -5.28 1.76
1 -10.56 -7.04 0
1 -8.8 -5.28 0
1 -8.8 -7.04 1.76
1 -10.56 -5.28 1.76
1 -7.04 -7.04 0
1 -5.28 -5.28 0
1 -5.28 -7.04 1.76
1 -7.04 -5.28 1.76
1 -3.52 -7.04 0
1 -1.76 -5.28 0
1 -1.76 -7.04 1.76
1 -3.52 -5.28 1.76
1 -14.08 -3.52 0
1 -12.32 -1.76 0
1 -12.32 -3.52 1.76
1 -14.08 -1.76 1.76
1 -10.56 -3.52 0
1 -8.8 -1.76 0
1 -8.8 -3.52 1.76
1 -10.56 -1.76 1.76
1 -7.04 -3.52 0
1 -5.28 -1.76 0
1 -5.28 -3.52 1.76
1 -7.04 -1.76 1.76
1 -3.52 -3.52 0
1 -1.76 -1.76 0
1 -1.76 -3.52 1.76
1 -3.52 -1.76 1.76
1 -14.08 -14.08 3.52
1 -12.32 -12.32 3.52
1 -12.32 -14.08 5.28
1 -14.08 -12.32 5.28
1 -10.56 -14.08 3.52
1 -8.8 -12.32 3.52
1 -8.8 -14.08 5.28
1 -10.56 -12.32 5.28
1 -7.04 -14.08 3.52
1 -5.28 -12.32 3.52
1 -5.28 -14.08 5.28
1 -7.04 -12.32 5.28
1 -3.52 -14.08 3.52
1 -1.76 -12.32 3.52
1 -1.76 -14.08 5.28
1 -3.52 -12.32 5.28
1 -14.08 -10.56 3.52
1 -12.32 -8.8 3.52
1 -12.32 -10.56 5.28
1 -14.08 -8.8 5.28
1 -10.56 -10.56 3.52
1 -8.8 -8.8 3.52
1 -8.8 -10.56 5.28
1 -10.56 -8.8 5.28
1 -7.04 -10.56 3.52
1 -5.28 -8.8 3.52
1 -5.28 -10.56 5.28
1 -7.04 -8.8 5.28
1 -3.52 -10.56 3.52
1 -1.76 -8.8 3.52
1 -1.76 -10.56 5.28
1 -3.52 -8.8 5.28
1 -14.08 -7.04 3.52
1 -12.32 -5.28 3.52
1 -12.32 -7.04 5.28
1 -14.08 -5.28 5.28
1 -10.56 -7.04 3.52
1 -8.8 -5.28 3.52
1 -8.8 -7.04 5.28
1 -10.56 -5.28 5.28
1 -7.04 -7.04 3.52
1 -5.28 -5.28 3.52
1 -5.28 -7.04 5.28
1 -7.04 -5.28 5.28
1 -3.52 -7.04 3.52
1 -1.76 -5.28 3.52
1 -1.76 -7.04 5.28
1 -3.52 -5.28 5.28
1 -14.08 -3.52 3.52
1 -12.32 -1.76 3.52
1 -12.32 -3.52 5.28
1 -14.08 -1.76 5.28
1 -10.56 -3.52 3.52
1 -8.8 -1.76 3.52
1 -8.8 -3.52 5.28
1 -10.56 -1.76 5.28
1 -7.04 -3.52 3.52
1 -5.28 -1.76 3.52
1 -5.28 -3.52 5.28
1 -7.04 -1.76 5.28
1 -3.52 -3.52 3.52
1 -1.76 -1.76 3.52
1 -1.76 -3.52 5.28
1 -3.52 -1.76 5.28
1 -14.08 -14.08 7.04
1 -12.32 -12.32 7.04
1 -12.32 -14.08 8.8
1 -14.08 -12.32 8.8
1 -10.56 -14.08 7.04
1 -8.8 -12.32 7.04
1 -8.8 -14.08 8.8
1 -10.56 -12.32 8.8
1 -7.04 -14.08 7.04
1 -5.28 -12.32 7.04
1 -5.28 -14.08 8.8
1 -7.04 -12.32 8.8
1 -3.52 -14.08 7.04
1 -1.76 -12.32 7.04
1 -1.76 -14.08 8.8
1 -3.52 -12.32 8.8
1 -14.08 -10.56 7.04
1 -12.32 -8.8 7.04
1 -12.32 -10.56 8.8
1 -14.08 -8.8 8.8
1 -10.56 -10.56 7.04
1 -8.8 -8.8 7.04
1 -8.8 -10.56 8.8
1 -10.56 -8.8 8.8
1 -7.04 -10.56 7.04
1 -5.28 -8.8 7.04
1 -5.28 -10.56 8.8
1 -7.04 -8.8 8.8
1 -3.52 -10.56 7.04
1 -1.76 -8.8 7.04
1 -1.76 -10.56 8.8
1 -3.52 -8.8 8.8
1 -14.08 -7.04 7.04
1 -12.32 -5.28 7.04
1 -12.32 -7.04 8.8
1 -14.08 -5.28 8.8
1 -10.56 -7.04 7.04
1 -8.8 -5.28 7.04
1 -8.8 -7.04 8.8
1 -10.56 -5.28 8.8
1 -7.04 -7.04 7.04
1 -5.28 -5.28 7.04
1 -5.28 -7.04 8.8
1 -7.04 -5.28 8.8
1 -3.52 -7.04 7.04
1 -1.76 -5.28 7.04
1 -1.76 -7.04 8.8
1 -3.52 -5.28 8.8
1 -14.08 -3.52 7.04
1 -12.32 -1.76 7.04
1 -12.32 -3.52 8.8
1 -14.08 -1.76 8.8
1 -10.56 -3.52 7.04
1 -8.8 -1.76 7.04
1 -8.8 -3.52 8.8
1 -10.56 -1.76 8.8
1 -7.04 -3.52 7.04
1 -5.28 -1.76 7.04
1 -5.28 -3.52 8.8
1 -7.04 -1.76 8.8
1 -3.52 -3.52 7.04
1 -1.76 -1.76 7.04
1 -1.76 -3.52 8.8
1 -3.52 -1.76 8.8
1 -14.08 -14.08 10.56
1 -12.32 -12.32 10.56
1 -12.32 -14.08 12.32
1 -14.08 -12.32 12.32
1 -10.56 -14.08 10.56
1 -8.8 -12.32 10.56
1 -8.8 -14.08 12.32
1 -10.56 -12.32 12.32
1 -7.04 -14.08 10.56
1 -5.28 -12.32 10.56
1 -5.28 -14.08 12.32
1 -7.04 -12.32 12.32
1 -3.52 -14.08 10.56
1 -1.76 -12.32 10.56
1 -1.76 -14.08 12.32
1 -3.52 -12.32 12.32
1 -14.08 -10.56 10.56
1 -12.32 -8.8 10.56
1 -12.32 -10.56 12.32
1 -14.08 -8.8 12.32
1 -10.56 -10.56 10.56
1 -8.8 -8.8 10.56
1 -8.8 -10.56 12.32
1 -10.56 -8.8 12.32
1 -7.04 -10.56 10.56
1 -5.28 -8.8 10.56
1 -5.28 -10.56 12.32
1 -7.04 -8.8 12.32
1 -3.52 -10.56 10.56
1 -1.76 -8.8 10.56
1 -1.76 -10.56 12.32
1 -3.52 -8.8 12.32
1 -14.08 -7.04 10.56
1 -12.32 -5.28 10.56
1 -12.32 -7.04 12.32
1 -14.08 -5.28 12.32
1 -10.56 -7.04 10.56
1 -8.8 -5.28 10.56
1 -8.8 -7.04 12.32
1 -10.56 -5.28 12.32
1 -7.04 -7.04 10.56
1 -5.28 -5.28 10.56
1 -5.28 -7.04 12.32
1 -7.04 -5.28 12.32
1 -3.52 -7.04 10.56
1 -1.76 -5.28 10.56
1 -1.76 -7.04 12.32
1 -3.52 -5.28 12.32
1 -14.08 -3.52 10.56
1 -12.32 -1.76 10.56
1 -12.32 -3.52 12.32
1 -14.08 -1.76 12.32
1 -10.56 -3.52 10.56
1 -8.8 -1.76 10.56
1 -8.8 -3.52 12.32
1 -10.56 -1.76 12.32
1 -7.04 -3.52 10.56
1 -5.28 -1.76 10.56
1 -5.28 -3.52 12.32
1 -7.04 -1.76 12.32
1 -3.52 -3.52 10.56
1 -1.76 -1.76 10.56
1 -1.76 -3.52 12.32
1 -3.52 -1.76 12.32
1 -14.08 0 -14.08
1 -12.32 1.76 -14.08
1 -12.32 0 -12.32
1 -14.08 1.76 -12.32
1 -10.56 0 -14.08
1 -8.8 1.76 -14.08
1 -8.8 0 -12.32
1 -10.56 1.76 -12.32
1 -7.04 0 -14.08
1 -5.28 1.76 -14.08
1 -5.28 0 -12.32
1 -7.04 1.76 -12.32
1 -3.52 0 -14.08
1 -1.76 1.76 -14.08
1 -1.76 0 -12.32
1 -3.52 1.76 -12.32
1 -14.08 3.52 -14.08
1 -12.32 5.28 -14.08
1 -12.32 3.52 -12.32
1 -14.08 5.28 -12.32
1 -10.56 3.52 -14.08
1 -8.8 5.28 -14.08
1 -8.8 3.52 -12.32
1 -10.56 5.28 -12.32
1 -7.04 3.52 -14.08
1 -5.28 5.28 -14.08
1 -5.28 3.52 -12.32
1 -7.04 5.28 -12.32
1 -3.52 3.52 -14.08
1 -1.76 5.28 -14.08
1 -1.76 3.52 -12.32
1 -3.52 5.28 -12.32
1 -14.08 7.04 -14.08
1 -12.32 8.8 -14.08
1 -12.32 7.04 -12.32
1 -14.08 8.8 -12.32
1 -10.56 7.04 -14.08
1 -8.8 8.8 -14.08
1 -8.8 7.04 -12.32
1 -10.56 8.8 -12.32
1 -7.04 7.04 -14.08
1 -5.28 8.8 -14.08
1 -5.28 7.04 -12.32
1 -7.04 8.8 -12.32
1 -3.52 7.04 -14.08
1 -1.76 8.8 -14.08
1 -1.76 7.04 -12.32
1 -3.52 8.8 -12.32
1 -14.08 10.56 -14.08
1 -12.32 12.32 -14.08
1 -12.32 10.56 -12.32
1 -14.08 12.32 -12.32
1 -10.56 10.56 -14.08
1 -8.8 12.32 -14.08
1 -8.8 10.56 -12.32
1 -10.56 12.32 -12.32
1 -7.04 10.56 -14.08
1 -5.28 12.32 -14.08
1 -5.28 10.56 -12.32
1 -7.04 12.32 -12.32
1 -3.52 10.56 -14.08
1 -1.76 12.32 -14.08
1 -1.76 10.56 -12.32
1 -3.52 12.32 -12.32
1 -14.08 0 -10.56
1 -12.32 1.76 -10.56
1 -12.32 0 -8.8
1 -14.08 1.76 -8.8
1 -10.56 0 -10.56
1 -8.8 1.76 -10.56
1 -8.8 0 -8.8
1 -10.56 1.76 -8.8
1 -7.04 0 -10.56
1 -5.28 1.76 -10.56
1 -5.28 0 -8.8
1 -7.04 1.76 -8.8
1 -3.52 0 -10.56
1 -1.76 1.76 -10.56
1 -1.76 0 -8.8
1 -3.52 1.76 -8.8
1 -14.08 3.52 -10.56
1 -12.32 5.28 -10.56
1 -12.32 3.52 -8.8
1 -14.08 5.28 -8.8
1 -10.56 3.52 -10.56
1 -8.8 5.28 -10.56
1 -8.8 3.52 -8.8
1 -10.56 5.28 -8.8
1 -7.04 3.52 -10.56
1 -5.28 5.28 -10.56
1 -5.28 3.52 -8.8
1 -7.04 5.28 -8.8
1 -3.52 3.52 -10.56
1 -1.76 5.28 -10.56
1 -1.76 3.52 -8.8
1 -3.52 5.28 -8.8
1 -14.08 7.04 -10.56
1 -12.32 8.8 -10.56
1 -12.32 7.04 -8.8
1 -14.08 8.8 -8.8
1 -10.56 7.04 -10.56
1 -8.8 8.8 -10.56
1 -8.8 7.04 -8.8
1 -10.56 8.8 -8.8
1 -7.04 7.04 -10.56
1 -5.28 8.8 -10.56
1 -5.28 7.04 -8.8
1 -7.04 8.8 -8.8
1 -3.52 7.04 -10.56
1 -1.76 8.8 -10.56
1 -1.76 7.04 -8.8
1 -3.52 8.8 -8.8
1 -14.08 10.56 -10.56
1 -12.32 12.32 -10.56
1 -12.32 10.56 -8.8
1 -14.08 12.32 -8.8
1 -10.56 10.56 -10.56
1 -8.8 12.32 -10.56
1 -8.8 10.56 -8.8
1 -10.56 12.32 -8.8
1 -7.04 10.56 -10.56
1 -5.28 12.32 -10.56
1 -5.28 10.56 -8.8
1 -7.04 12.32 -8.8
1 -3.52 10.56 -10.56
1 -1.76 12.32 -10.56
1 -1.76 10.56 -8.8
1 -3.52 12.32 -8.8
1 -14.08 0 -7.04
1 -12.32 1.76 -7.04
1 -12.32 0 -5.28
1 -14.08 1.76 -5.28
1 -10.56 0 -7.04
1 -8.8 1.76 -7.04
1 -8.8 0 -5.28
1 -10.56 1.76 -5.28
1 -7.04 0 -7.04
1 -5.28 1.76 -7.04
1 -5.28 0 -5.28
1 -7.04 1.76 -5.28
1 -3.52 0 -7.04
1 -1.76 1.76 -7.04
1 -1.76 0 -5.28
1 -3.52 1.76 -5.28
1 -14.08 3.52 -7.04
1 -12.32 5.28 -7.04
1 -12.32 3.52 -5.28
1 -14.08 5.28 -5.28
1 -10.56 3.52 -7.04
1 -8.8 5.28 -7.04
1 -8.8 3.52 -5.28
1 -10.56 5.28 -5.28
1 -7.04 3.52 -7.04
1 -5.28 5.28 -7.04
1 -5.28 3.52 -5.28
1 -7.04 5.28 -5.28
1 -3.52 3.52 -7.04
1 -1.76 5.28 -7.04
1 -1.76 3.52 -5.28
1 -3.52 5.28 -5.28
1 -14.08 7.04 -7.04
1 -12.32 8.8 -7.04
1 -12.32 7.04 -5.28
1 -14.08 8.8 -5.28
1 -10.56 7.04 -7.04
1 -8.8 8.8 -7.04
1 -8.8 7.04 -5.28
1 -10.56 8.8 -5.28
1 -7.04 7.04 -7.04
1 -5.28 8.8 -7.04
1 -5.28 7.04 -5.28
1 -7.04 8.8 -5.28
1 -3.52 7.04 -7.04
1 -1.76 8.8 -7.04
1 -1.76 7.04 -5.28
1 -3.52 8.8 -5.28
1 -14.08 10.56 -7.04
1 -12.32 12.32 -7.04
1 -12.32 10.56 -5.28
1 -14.08 12.32 -5.28
1 -10.56 10.56 -7.04
1 -8.8 12.32 -7.04
1 -8.8 10.56 -5.28
1 -10.56 12.32 -5.28
1 -7.04 10.56 -7.04
1 -5.28 12.32 -7.04
1 -5.28 10.56 -5.28
1 -7.04 12.32 -5.28
1 -3.52 10.56 -7.04
1 -1.76 12.32 -7.04
1 -1.76 10.56 -5.28
1 -3.52 12.32 -5.28
1 -14.08 0 -3.52
1 -12.32 1.76 -3.52
1 -12.32 0 -1.76
1 -14.08 1.76 -1.76
1 -10.56 0 -3.52
1 -8.8 1.76 -3.52
1 -8.8 0 -1.76
1 -10.56 1.76 -1.76
1 -7.04 0 -3.52
1 -5.28 1.76 -3.52
1 -5.28 0 -1.76
1 -7.04 1.76 -1.76
1 -3.52 0 -3.52
1 -1.76 1.76 -3.52
1 -1.76 0 -1.76
1 -3.52 1.76 -1.76
1 -14.08 3.52 -3.52
1 -12.32 5.28 -3.52
1 -12.32 3.52 -1.76
1 -14.08 5.28 -1.76
1 -10.56 3.52 -3.52
1 -8.8 5.28 -3.52
1 -8.8 3.52 -1.76
1 -10.56 5.28 -1.76
1 -7.04 3.52 -3.52
1 -5.28 5.28 -3.52
1 -5.28 3.52 -1.76
1 -7.04 5.28 -1.76
1 -3.52 3.52 -3.52
1 -1.76 5.28 -3.52
1 -1.76 3.52 -1.76
1 -3.52 5.28 -1.76
1 -14.08 7.04 -3.52
1 -12.32 8.8 -3.52
1 -12.32 7.04 -1.76
1 -14.08 8.8 -1.76
1 -10.56 7.04 -3.52
1 -8.8 8.8 -3.52
1 -8.8 7.04 -1.76
1 -10.56 8.8 -1.76
1 -7.04 7.04 -3.52
1 -5.28 8.8 -3.52
1 -5.28 7.04 -1.76
1 -7.04 8.8 -1.76
1 -3.52 7.04 -3.52
1 -1.76 8.8 -3.52
1 -1.76 7.04 -1.76
1 -3.52 8.8 -1.76
1 -14.08 10.56 -3.52
1 -12.32 12.32 -3.52
1 -12.32 10.56 -1.76
1 -14.08 12.32 -1.76
1 -10.56 10.56 -3.52
1 -8.8 12.32 -3.52
1 -8.8 10.56 -1.76
1 -10.56 12.32 -1.76
1 -7.04 10.56 -3.52
1 -5.28 12.32 -3.52
1 -5.28 10.56 -1.76
1 -7.04 12.32 -1.76
1 -3.52 10.56 -3.52
1 -1.76 12.32 -3.52
1 -1.76 10.56 -1.76
1 -3.52 12.32 -1.76
1 -14.08 0 0
1 -12.32 1.76 0
1 -12.32 0 1.76
1 -14.08 1.76 1.76
1 -10.56 0 0
1 -8.8 1.76 0
1 -8.8 0 1.76
1 -10.56 1.76 1.76
1 -7.04 0 0
1 -5.28 1.76 0
1 -5.28 0 1.76
1 -7.04 1.76 1.76
1 -3.52 0 0
1 -1.76 1.76 0
1 -1.76 0 1.76
1 -3.52 1.76 1.76
1 -14.08 3.52 0
1 -12.32 5.28 0
1 -12.32 3.52 1.76
1 -14.08 5.28 1.76
1 -10.56 3.52 0
1 -8.8 5.28 0
1 -8.8 3.52 1.76
1 -10.56 5.28 1.76
1 -7.04 3.52 0
1 -5.28 5.28 0
1 -5.28 3.52 1.76
1 -7.04 5.28 1.76
1 -3.52 3.52 0
1 -1.76 5.28 0
1 -1.76 3.52 1.76
1 -3.52 5.28 1.76
1 -14.08 7.04 0
1 -12.32 8.8 0
1 -12.32 7.04 1.76
1 -14.08 8.8 1.76
1 -10.56 7.04 0
1 -8.8 8.8 0
1 -8.8 7.04 1.76
1 -10.56 8.8 1.76
1 -7.04 7.04 0
1 -5.28 8.8 0
1 -5.28 7.04 1.76
1 -7.04 8.8 1.76
1 -3.52 7.04 0
1 -1.76 8.8 0
1 -1.76 7.04 1.76
1 -3.52 8.8 1.76
1 -14.08 10.56 0
1 -12.32 12.32 0
1 -12.32 10.56 1.76
1 -14.08 12.32 1.76
1 -10.56 10.56 0
1 -8.8 12.32 0
1 -8.8 10.56 1.76
1 -10.56 12.32 1.76
1 -7.04 10.56 0
1 -5.28 12.32 0
1 -5.28 10.56 1.76
1 -7.04 12.32 1.76
1 -3.52 10.56 0
1 -1.76 12.32 0
1 -1.76 10.56 1.76
1 -3.52 12.32 1.76
1 -14.08 0 3.52
1 -12.32 1.76 3.52
1 -12.32 0 5.28
1 -14.08 1.76 5.28
1 -10.56 0 3.52
1 -8.8 1.76 3.52
1 -8.8 0 5.28
1 -10.56 1.76 5.28
1 -7.04 0 3.52
1 -5.28 1.76 3.52
1 -5.28 0 5.28
1 -7.04 1.76 5.28
1 -3.52 0 3.52
1 -1.76 1.76 3.52
1 -1.76 0 5.28
1 -3.52 1.76 5.28
1 -14.08 3.52 3.52
1 -12.32 5.28 3.52
1 -12.32 3.52 5.28
1 -14.08 5.28 5.28
1 -10.56 3.52 3.52
1 -8.8 5.28 3.52
1 -8.8 3.52 5.28
1 -10.56 5.28 5.28
1 -7.04 3.52 3.52
1 -5.28 5.28 3.52
1 -5.28 3.52 5.28
1 -7.04 5.28 5.28
1 -3.52 3.52 3.52
1 -1.76 5.28 3.52
1 -1.76 3.52 5.28
1 -3.52 5.28 5.28
1 -14.08 7.04 3.52
1 -12.32 8.8 3.52
1 -12.32 7.04 5.28
1 -14.08 8.8 5.28
1 -10.56 7.04 3.52
1 -8.8 8.8 3.52
1 -8.8 7.04 5.28
1 -10.56 8.8 5.28
1 -7.04 7.04 3.52
1 -5.28 8.8 3.52
1 -5.28 7.04 5.28
1 -7.04 8.8 5.28
1 -3.52 7.04 3.52
1 -1.76 8.8 3.52
1 -1.76 7.04 5.28
1 -3.52 8.8 5.28
1 -14.08 10.56 3.52
1 -12.32 12.32 3.52
1 -12.32 10.56 5.28
1 -14.08 12.32 5.28
1 -10.56 10.56 3.52
1 -8.8 12.32 3.52
1 -8.8 10.56 5.28
1 -10.56 12.32 5.28
1 -7.04 10.56 3.52
1 -5.28 12.32 3.52
1 -5.28 10.56 5.28
1 -7.04 12.32 5.28
1 -3.52 10.56 3.52
1 -1.76 12.32 3.52
1 -1.76 10.56 5.28
1 -3.52 12.32 5.28
1 -14.08 0 7.04
1 -12.32 1.76 7.04
1 -12.32 0 8.8
1 -14.08 1.76 8.8
1 -10.56 0 7.04
1 -8.8 1.76 7.04
1 -8.8 0 8.8
1 -10.56 1.76 8.8
1 -7.04 0 7.04
1 -5.28 1.76 7.04
1 -5.28 0 8.8
1 -7.04 1.76 8.8
1 -3.52 0 7.04
1 -1.76 1.76 7.04
1 -1.76 0 8.8
1 -3.52 1.76 8.8
1 -14.08 3.52 7.04
1 -12.32 5.28 7.04
1 -12.32 3.52 8.8
1 -14.08 5.28 8.8
1 -10.56 3.52 7.04
1 -8.8 5.28 7.04
1 -8.8 3.52 8.8
1 -10.56 5.28 8.8
1 -7.04 3.52 7.04
1 -5.28 5.28 7.04
1 -5.28 3.52 8.8
1 -7.04 5.28 8.8
1 -3.52 3.52 7.04
1 -1.76 5.28 7.04
1 -1.76 3.52 8.8
1 -3.52 5.28 8.8
1 -14.08 7.04 7.04
1 -12.32 8.8 7.04
1 -12.32 7.04 8.8
1 -14.08 8.8 8.8
1 -10.56 7.04 7.04
1 -8.8 8.8 7.04
1 -8.8 7.04 8.8
1 -10.56 8.8 8.8
1 -7.04 7.04 7.04
1 -5.28 8.8 7.04
1 -5.28 7.04 8.8
1 -7.04 8.8 8.8
1 -3.52 7.04 7.04
1 -1.76 8.8 7.04
1 -1.76 7.04 8.8
1 -3.52 8.8 8.8
1 -14.08 10.56 7.04
1 -12.32 12.32 7.04
1 -12.32 10.56 8.8
1 -14.08 12.32 8.8
1 -10.56 10.56 7.04
1 -8.8 12.32 7.04
1 -8.8 10.56 8.8
1 -10.56 12.32 8.8
1 -7.04 10.56 7.04
1 -5.28 12.32 7.04
1 -5.28 10.56 8.8
1 -7.04 12.32 8.8
1 -3.52 10.56 7.04
1 -1.76 12.32 7.04
1 -1.76 10.56 8.8
1 -3.52 12.32 8.8
1 -14.08 0 10.56
1 -12.32 1.76 10.56
1 -12.32 0 12.32
1 -14.08 1.76 12.32
1 -10.56 0 10.56
1 -8.8 1.76 10.56
1 -8.8 0 12.32
1 -10.56 1.76 12.32
1 -7.04 0 10.56
1 -5.28 1.76 10.56
1 -5.28 0 12.32
1 -7.04 1.76 12.32
1 -3.52 0 10.56
1 -1.76 1.76 10.56
1 -1.76 0 12.32
1 -3.52 1.76 12.32
1 -14.08 3.52 10.56
1 -12.32 5.28 10.56
1 -12.32 3.52 12.32
1 -14.08 5.28 12.32
1 -10.56 3.52 10.56
1 -8.8 5.28 10.56
1 -8.8 3.52 12.32
1 -10.56 5.28 12.32
1 -7.04 3.52 10.56
1 -5.28 5.28 10.56
1 -5.28 3.52 12.32
1 -7.04 5.28 12.32
1 -3.52 3.52 10.56
1 -1.76 5.28 10.56
1 -1.76 3.52 12.32
1 -3.52 5.28 12.32
1 -14.08 7.04 10.56
1 -12.32 8.8 10.56
1 -12.32 7.04 12.32
1 -14.08 8.8 12.32
1 -10.56 7.04 10.56
1 -8.8 8.8 10.56
1 -8.8 7.04 12.32
1 -10.56 8.8 12.32
1 -7.04 7.04 10.56
1 -5.28 8.8 10.56
1 -5.28 7.04 12.32
1 -7.04 8.8 12.32
1 -3.52 7.04 10.56
1 -1.76 8.8 10.56
1 -1.76 7.04 12.32
1 -3.52 8.8 12.32
1 -14.08 10.56 10.56
1 -12.32 12.32 10.56
1 -12.32 10.56 12.32
1 -14.08 12.32 12.32
1 -10.56 10.56 10.56
1 -8.8 12.32 10.56
1 -8.8 10.56 12.32
1 -10.56 12.32 12.32
1 -7.04 10.56 10.56
1 -5.28 12.32 10.56
1 -5.28 10.56 12.32
1 -7.04 12.32 12.32
1 -3.52 10.56 10.56
1 -1.76 12.32 10.56
1 -1.76 10.56 12.32
1 -3.52 12.32 12.32
1 0 -14.08 -14.08
1 1.76 -12.32 -14.08
1 1.76 -14.08 -12.32
1 0 -12.32 -12.32
1 3.52 -14.08 -14.08
1 5.28 -12.32 -14.08
1 5.28 -14.08 -12.32
1 3.52 -12.32 -12.32
1 7.04 -14.08 -14.08
1 8.8 -12.32 -14.08
1 8.8 -14.08 -12.32
1 7.04 -12.32 -12.32
1 10.56 -14.08 -14.08
1 12.32 -12.32 -14.08
1 12.32 -14.08 -12.32
1 10.56 -12.32 -12.32
1 0 -10.56 -14.08
1 1.76 -8.8 -14.08
1 1.76 -10.56 -12.32
1 0 -8.8 -12.32
1 3.52 -10.56 -14.08
1 5.28 -8.8 -14.08
1 5.28 -10.56 -12.32
1 3.52 -8.8 -12.32
1 7.04 -10.56 -14.08
1 8.8 -8.8 -14.08
1 8.8 -10.56 -12.32
1 7.04 -8.8 -12.32
1 10.56 -10.56 -14.08
1 12.32 -8.8 -14.08
1 12.32 -10.56 -12.32
1 10.56 -8.8 -12.32
1 0 -7.04 -14.08
1 1.76 -5.28 -14.08
1 1.76 -7.04 -12.32
1 0 -5.28 -12.32
1 3.52 -7.04 -14.08
1 5.28 -5.28 -14.08
1 5.28 -7.04 -12.32
1 3.52 -5.28 -12.32
1 7.04 -7.04 -14.08
1 8.8 -5.28 -14.08
1 8.8 -7.04 -12.32
1 7.04 -5.28 -12.32
1 10.56 -7.04 -14.08
1 12.32 -5.28 -14.08
1 12.32 -7.04 -12.32
1 10.56 -5.28 -12.32
1 0 -3.52 -14.08
1 1.76 -1.76 -14.08
1 1.76 -3.52 -12.32
1 0 -1.76 -12.32
1 3.52 -3.52 -14.08
1 5.28 -1.76 -14.08
1 5.28 -3.52 -12.32
1 3.52 -1.76 -12.32
1 7.04 -3.52 -14.08
1 8.8 -1.76 -14.08
1 8.8 -3.52 -12.32
1 7.04 -1.76 -12.32
1 10.56 -3.52 -14.08
1 12.32 -1.76 -14.08
1 12.32 -3.52 -12.32
1 10.56 -1.76 -12.32
1 0 -14.08 -10.56
1 1.76 -12.32 -10.56
1 1.76 -14.08 -8.8
1 0 -12.32 -8.8
1 3.52 -14.08 -10.56
1 5.28 -12.32 -10.56
1 5.28 -14.08 -8.8
1 3.52 -12.32 -8.8
1 7.04 -14.08 -10.56
1 8.8 -12.32 -10.56
1 8.8 -14.08 -8.8
1 7.04 -12.32 -8.8
1 10.56 -14.08 -10.56
1 12.32 -12.32 -10.56
1 12.32 -14.08 -8.8
1 10.56 -12.32 -8.8
1 0 -10.56 -10.56
1 1.76 -8.8 -10.56
1 1.76 -10.56 -8.8
1 0 -8.8 -8.8
1 3.52 -10.56 -10.56
1 5.28 -8.8 -10.56
1 5.28 -10.56 -8.8
1 3.52 -8.8 -8.8
1 7.04 -10.56 -10.56
1 8.8 -8.8 -10.56
1 8.8 -10.56 -8.8
1 7.04 -8.8 -8.8
1 10.56 -10.56 -10.56
1 12.32 -8.8 -10.56
1 12.32 -10.56 -8.8
1 10.56 -8.8 -8.8
1 0 -7.04 -10.56
1 1.76 -5.28 -10.56
1 1.76 -7.04 -8.8
1 0 -5.28 -8.8
1 3.52 -7.04 -10.56
1 5.28 -5.28 -10.56
1 5.28 -7.04 -8.8
1 3.52 -5.28 -8.8
1 7.04 -7.04 -10.56
1 8.8 -5.28 -10.56
1 8.8 -7.04 -8.8
1 7.04 -5.28 -8.8
1 10.56 -7.04 -10.56
1 12.32 -5.28 -10.56
1 12.32 -7.04 -8.8
1 10.56 -5.28 -8.8
1 0 -3.52 -10.56
1 1.76 -1.76 -10.56
1 1.76 -3.52 -8.8
1 0 -1.76 -8.8
1 3.52 -3.52 -10.56
1 5.28 -1.76 -10.56
1 5.28 -3.52 -8.8
1 3.52 -1.76 -8.8
1 7.04 -3.52 -10.56
1 8.8 -1.76 -10.56
1 8.8 -3.52 -8.8
1 7.04 -1.76 -8.8
1 10.56 -3.52 -10.56
1 12.32 -1.76 -10.56
1 12.32 -3.52 -8.8
1 10.56 -1.76 -8.8
1 0 -14.08 -7.04
1 1.76 -12.32 -7.04
1 1.76 -14.08 -5.28
1 0 -12.32 -5.28
1 3.52 -14.08 -7.04
1 5.28 -12.32 -7.04
1 5.28 -14.08 -5.28
1 3.52 -12.32 -5.28
1 7.04 -14.08 -7.04
1 8.8 -12.32 -7.04
1 8.8 -14.08 -5.28
1 7.04 -12.32 -5.28
1 10.56 -14.08 -7.04
1 12.32 -12.32 -7.04
1 12.32 -14.08 -5.28
1 10.56 -12.32 -5.28
1 0 -10.56 -7.04
1 1.76 -8.8 -7.04
1 1.76 -10.56 -5.28
1 0 -8.8 -5.28
1 3.52 -10.56 -7.04
1 5.28 -8.8 -7.04
1 5.28 -10.56 -5.28
1 3.52 -8.8 -5.28
1 7.04 -10.56 -7.04
1 8.8 -8.8 -7.04
1 8.8 -10.56 -5.28
1 7.04 -8.8 -5.28
1 10.56 -10.56 -7.04
1 12.32 -8.8 -7.04
1 12.32 -10.56 -5.28
1 10.56 -8.8 -5.28
1 0 -7.04 -7.04
1 1.76 -5.28 -7.04
1 1.76 -7.04 -5.28
1 0 -5.28 -5.28
1 3.52 -7.04 -7.04
1 5.28 -5.28 -7.04
1 5.28 -7.04 -5.28
1 3.52 -5.28 -5.28
1 7.04 -7.04 -7.04
1 8.8 -5.28 -7.04
1 8.8 -7.04 -5.28
1 7.04 -5.28 -5.28
1 10.56 -7.04 -7.04
1 12.32 -5.28 -7.04
1 12.32 -7.04 -5.28
1 10.56 -5.28 -5.28
1 0 -3.52 -7.04
1 1.76 -1.76 -7.04
1 1.76 -3.52 -5.28
1 0 -1.76 -5.28
1 3.52 -3.52 -7.04
1 5.28 -1.76 -7.04
1 5.28 -3.52 -5.28
1 3.52 -1.76 -5.28
1 7.04 -3.52 -7.04
1 8.8 -1.76 -7.04
1 8.8 -3.52 -5.28
1 7.04 -1.76 -5.28
1 10.56 -3.52 -7.04
1 12.32 -1.76 -7.04
1 12.32 -3.52 -5.28
1 10.56 -1.76 -5.28
1 0 -14.08 -3.52
1 1.76 -12.32 -3.52
1 1.76 -14.08 -1.76
1 0 -12.32 -1.76
1 3.52 -14.08 -3.52
1 5.28 -12.32 -3.52
1 5.28 -14.08 -1.76
1 3.52 -12.32 -1.76
1 7.04 -14.08 -3.52
1 8.8 -12.32 -3.52
1 8.8 -14.08 -1.76
1 7.04 -12.32 -1.76
1 10.56 -14.08 -3.52
1 12.32 -12.32 -3.52
1 12.32 -14.08 -1.76
1 10.56 -12.32 -1.76
1 0 -10.56 -3.52
1 1.76 -8.8 -3.52
1 1.76 -10.56 -1.76
1 0 -8.8 -1.76
1 3.52 -10.56 -3.52
1 5.28 -8.8 -3.52
1 5.28 -10.56 -1.76
1 3.52 -8.8 -1.76
1 7.04 -10.56 -3.52
1 8.8 -8.8 -3.52
1 8.8 -10.56 -1.76
1 7.04 -8.8 -1.76
1 10.56 -10.56 -3.52
1 12.32 -8.8 -3.52
1 12.32 -10.56 -1.76
1 10.56 -8.8 -1.76
1 0 -7.04 -3.52
1 1.76 -5.28 -3.52
1 1.76 -7.04 -1.76
1 0 -5.28 -1.76
1 3.52 -7.04 -3.52
1 5.28 -5.28 -3.52
1 5.28 -7.04 -1.76
1 3.52 -5.28 -1.76
1 7.04 -7.04 -3.52
1 8.8 -5.28 -3.52
1 8.8 -7.04 -1.76
1 7.04 -5.28 -1.76
1 10.56 -7.04 -3.52
1 12.32 -5.28 -3.52
1 12.32 -7.04 -1.76
1 10.56 -5.28 -1.76
1 0 -3.52 -3.52
1 1.76 -1.76 -3.52
1 1.76 -3.52 -1.76
1 0 -1.76 -1.76
1 3.52 -3.52 -3.52
1 5.28 -1.76 -3.52
1 5.28 -3.52 -1.76
1 3.52 -1.76 -1.76
1 7.04 -3.52 -3.52
1 8.8 -1.76 -3.52
1 8.8 -3.52 -1.76
1 7.04 -1.76 -1.76
1 10.56 -3.52 -3.52
1 12.32 -1.76 -3.52
1 12.32 -3.52 -1.76
1 10.56 -1.76 -1.76
1 0 -14.08 0
1 1.76 -12.32 0
1 1.76 -14.08 1.76
1 0 -12.32 1.76
1 3.52 -14.08 0
1 5.28 -12.32 0
1 5.28 -14.08 1.76
1 3.52 -12.32 1.76
1 7.04 -14.08 0
1 8.8 -12.32 0
1 8.8 -14.08 1.76
1 7.04 -12.32 1.76
1 10.56 -14.08 0
1 12.32 -12.32 0
1 12.32 -14.08 1.76
1 10.56 -12.32 1.76
1 0 -10.56 0
1 1.76 -8.8 0
1 1.76 -10.56 1.76
1 0 -8.8 1.76
1 3.52 -10.56 0
1 5.28 -8.8 0
1 5.28 -10.56 1.76
1 3.52 -8.8 1.76
1 7.04 -10.56 0
1 8.8 -8.8 0
1 8.8 -10.56 1.76
1 7.04 -8.8 1.76
1 10.56 -10.56 0
1 12.32 -8.8 0
1 12.32 -10.56 1.76
1 10.56 -8.8 1.76
1 0 -7.04 0
1 1.76 -5.28 0
1 1.76 -7.04 1.76
1 0 -5.28 1.76
1 3.52 -7.04 0
1 5.28 -5.28 0
1 5.28 -7.04 1.76
1 3.52 -5.28 1.76
1 7.04 -7.04 0
1 8.8 -5.28 0
1 8.8 -7.04 1.76
1 7.04 -5.28 1.76
1 10.56 -7.04 0
1 12.32 -5.28 0
1 12.32 -7.04 1.76
1 10.56 -5.28 1.76
1 0 -3.52 0
1 1.76 -1.76 0
1 1.76 -3.52 1.76
1 0 -1.76 1.76
1 3.52 -3.52 0
1 5.28 -1.76 0
1 5.28 -3.52 1.76
1 3.52 -1.76 1.76
1 7.04 -3.52 0
1 8.8 -1.76 0
1 8.8 -3.52 1.76
1 7.04 -1.76 1.76
1 10.56 -3.52 0
1 12.32 -1.76 0
1 12.32 -3.52 1.76
1 10.56 -1.76 1.76
1 0 -14.08 3.52
1 1.76 -12.32 3.52
1 1.76 -14.08 5.28
1 0 -12.32 5.28
1 3.52 -14.08 3.52
1 5.28 -12.32 3.52
1 5.28 -14.08 5.28
1 3.52 -12.32 5.28
1 7.04 -14.08 3.52
1 8.8 -12.32 3.52
1 8.8 -14.08 5.28
1 7.04 -12.32 5.28
1 10.56 -14.08 3.52
1 12.32 -12.32 3.52
1 12.32 -14.08 5.28
1 10.56 -12.32 5.28
1 0 -10.56 3.52
1 1.76 -8.8 3.52
1 1.76 -10.56 5.28
1 0 -8.8 5.28
1 3.52 -10.56 3.52
1 5.28 -8.8 3.52
1 5.28 -10.56 5.28
1 3.52 -8.8 5.28
1 7.04 -10.56 3.52
1 8.8 -8.8 3.52
1 8.8 -10.56 5.28
1 7.04 -8.8 5.28
1 10.56 -10.56 3.52
1 12.32 -8.8 3.52
1 12.32 -10.56 5.28
1 10.56 -8.8 5.28
1 0 -7.04 3.52
1 1.76 -5.28 3.52
1 1.76 -7.04 5.28
1 0 -5.28 5.28
1 3.52 -7.04 3.52
1 5.28 -5.28 3.52
1 5.28 -7.04 5.28
1 3.52 -5.28 5.28
1 7.04 -7.04 3.52
1 8.8 -5.28 3.52
1 8.8 -7.04 5.28
1 7.04 -5.28 5.28
1 10.56 -7.04 3.52
1 12.32 -5.28 3.52
1 12.32 -7.04 5.28
1 10.56 -5.28 5.28
1 0 -3.52 3.52
1 1.76 -1.76 3.52
1 1.76 -3.52 5.28
1 0 -1.76 5.28
1 3.52 -3.52 3.52
1 5.28 -1.76 3.52
1 5.28 -3.52 5.28
1 3.52 -1.76 5.28
1 7.04 -3.52 3.52
1 8.8 -1.76 3.52
1 8.8 -3.52 5.28
1 7.04 -1.76 5.28
1 10.56 -3.52 3.52
1 12.32 -1.76 3.52
1 12.32 -3.52 5.28
1 10.56 -1.76 5.28
1 0 -14.08 7.04
1 1.76 -12.32 7.04
1 1.76 -14.08 8.8
1 0 -12.32 8.8
1 3.52 -14.08 7.04
1 5.28 -12.32 7.04
1 5.28 -14.08 8.8
1 3.52 -12.32 8.8
1 7.04 -14.08 7.04
1 8.8 -12.32 7.04
1 8.8 -14.08 8.8
1 7.04 -12.32 8.8
1 10.56 -14.08 7.04
1 12.32 -12.32 7.04
1 12.32 -14.08 8.8
1 10.56 -12.32 8.8
1 0 -10.56 7.04
1 1.76 -8.8 7.04
1 1.76 -10.56 8.8
1 0 -8.8 8.8
1 3.52 -10.56 7.04
1 5.28 -8.8 7.04
1 5.28 -10.56 8.8
1 3.52 -8.8 8.8
1 7.04 -10.56 7.04
1 8.8 -8.8 7.04
1 8.8 -10.56 8.8
1 7.04 -8.8 8.8
1 10.56 -10.56 7.04
1 12.32 -8.8 7.04
1 12.32 -10.56 8.8
1 10.56 -8.8 8.8
1 0 -7.04 7.04
1 1.76 -5.28 7.04
1 1.76 -7.04 8.8
1 0 -5.28 8.8
1 3.52 -7.04 7.04
1 5.28 -5.28 7.04
1 5.28 -7.04 8.8
1 3.52 -5.28 8.8
1 7.04 -7.04 7.04
1 8.8 -5.28 7.04
1 8.8 -7.04 8.8
1 7.04 -5.28 8.8
1 10.56 -7.04 7.04
1 12.32 -5.28 7.04
1 12.32 -7.04 8.8
1 10.56 -5.28 8.8
1 0 -3.52 7.04
1 1.76 -1.76 7.04
1 1.76 -3.52 8.8
1 0 -1.76 8.8
1 3.52 -3.52 7.04
1 5.28 -1.76 7.04
1 5.28 -3.52 8.8
1 3.52 -1.76 8.8
1 7.04 -3.52 7.04
1 8.8 -1.76 7.04
1 8.8 -3.52 8.8
1 7.04 -1.76 8.8
1 10.56 -3.52 7.04
1 12.32 -1.76 7.04
1 12.32 -3.52 8.8
1 10.56 -1.76 8.8
1 0 -14.08 10.56
1 1.76 -12.32 10.56
1 1.76 -14.08 12.32
1 0 -12.32 12.32
1 3.52 -14.08 10.56
1 5.28 -12.32 10.56
1 5.28 -14.08 12.32
1 3.52 -12.32 12.32
1 7.04 -14.08 10.56
1 8.8 -12.32 10.56
1 8.8 -14.08 12.32
1 7.04 -12.32 12.32
1 10.56 -14.08 10.56
1 12.32 -12.32 10.56
1 12.32 -14.08 12.32
1 10.56 -12.32 12.32
1 0 -10.56 10.56
1 1.76 -8.8 10.56
1 1.76 -10.56 12.32
1 0 -8.8 12.32
1 3.52 -10.56 10.56
1 5.28 -8.8 10.56
1 5.28 -10.56 12.32
1 3.52 -8.8 12.32
1 7.04 -10.56 10.56
1 8.8 -8.8 10.56
1 8.8 -10.56 12.32
1 7.04 -8.8 12.32
1 10.56 -10.56 10.56
1 12.32 -8.8 10.56
1 12.32 -10.56 12.32
1 10.56 -8.8 12.32
1 0 -7.04 10.56
1 1.76 -5.28 10.56
1 1.76 -7.04 12.32
1 0 -5.28 12.32
1 3.52 -7.04 10.56
1 5.28 -5.28 10.56
1 5.28 -7.04 12.32
1 3.52 -5.28 12.32
1 7.04 -7.04 10.56
1 8.8 -5.28 10.56
1 8.8 -7.04 12.32
1 7.04 -5.28 12.32
1 10.56 -7.04 10.56
1 12.32 -5.28 10.56
1 12.32 -7.04 12.32
1 10.56 -5.28 12.32
1 0 -3.52 10.56
1 1.76 -1.76 10.56
1 1.76 -3.52 12.32
1 0 -1.76 12.32
1 3.52 -3.52 10.56
1 5.28 -1.76 10.56
1 5.28 -3.52 12.32
1 3.52 -1.76 12.32
1 7.04 -3.52 10.56
1 8.8 -1.76 10.56
1 8.8 -3.52 12.32
1 7.04 -1.76 12.32
1 10.56 -3.52 10.56
1 12.32 -1.76 10.56
1 12.32 -3.52 12.32
1 10.56 -1.76 12.32
1 0 0 -14.08
1 1.76 1.76 -14.08
1 1.76 0 -12.32
1 0 1.76 -12.32
1 3.52 0 -14.08
1 5.28 1.76 -14.08
1 5.28 0 -12.32
1 3.52 1.76 -12.32
1 7.04 0 -14.08
1 8.8 1.76 -14.08
1 8.8 0 -12.32
1 7.04 1.76 -12.32
1 10.56 0 -14.08
1 12.32 1.76 -14.08
1 12.32 0 -12.32
1 10.56 1.76 -12.32
1 0 3.52 -14.08
1 1.76 5.28 -14.08
1 1.76 3.52 -12.32
1 0 5.28 -12.32
1 3.52 3.52 -14.08
1 5.28 5.28 -14.08
1 5.28 3.52 -12.32
1 3.52 5.28 -12.32
1 7.04 3.52 -14.08
1 8.8 5.28 -14.08
1 8.8 3.52 -12.32
1 7.04 5.28 -12.32
1 10.56 3.52 -14.08
1 12.32 5.28 -14.08
1 12.32 3.52 -12.32
1 10.56 5.28 -12.32
1 0 7.04 -14.08
1 1.76 8.8 -14.08
1 1.76 7.04 -12.32
1 0 8.8 -12.32
1 3.52 7.04 -14.08
1 5.28 8.8 -14.08
1 5.28 7.04 -12.32
1 3.52 8.8 -12.32
1 7.04 7.04 -14.08
1 8.8 8.8 -14.08
1 8.8 7.04 -12.32
1 7.04 8.8 -12.32