2048
 Atoms. Timestep: 0
Ni 0 0 0
Ni 1.76 1.76 0
Ni 1.76 0 1.76
Fe 0 1.76 1.76
Fe 3.52 0 0
Ni 5.28 1.76 0
Ni 5.28 0 1.76
Ni 3.52 1.76 1.76
Ni 7.04 0 0
Fe 8.8 1.76 0
Ni 8.8 0 1.76
Ni 7.04 1.76 1.76
Ni 10.56 0 0
Ni 12.32 1.76 0
Ni 12.32 0 1.76
Ni 10.56 1.76 1.76
Ni 14.08 0 0
Ni 15.84 1.76 0
Ni 15.84 0 1.76
Ni 14.08 1.76 1.76
Fe 17.6 0 0
Ni 19.36 1.76 0
Fe 19.36 0 1.76
Ni 17.6 1.76 1.76
Ni 21.12 0 0
Fe 22.88 1.76 0
Ni 22.88 0 1.76
Fe 21.12 1.76 1.76
Ni 24.64 0 0
Fe 26.4 1.76 0
Fe 26.4 0 1.76
Ni 24.64 1.76 1.76
Ni 0 3.52 0
Ni 1.76 5.28 0
Fe 1.76 3.52 1.76
Ni 0 5.28 1.76
Ni 3.52 3.52 0
Fe 5.28 5.28 0
Fe 5.28 3.52 1.76
Fe 3.52 5.28 1.76
Ni 7.04 3.52 0
Ni 8.8 5.28 0
Ni 8.8 3.52 1.76
Ni 7.04 5.28 1.76
Ni 10.56 3.52 0
Ni 12.32 5.28 0
Ni 12.32 3.52 1.76
Ni 10.56 5.28 1.76
Ni 14.08 3.52 0
Ni 15.84 5.28 0
Ni 15.84 3.52 1.76
Ni 14.08 5.28 1.76
Fe 17.6 3.52 0
Ni 19.36 5.28 0
Ni 19.36 3.52 1.76
Ni 17.6 5.28 1.76
Ni 21.12 3.52 0
Fe 22.88 5.28 0
Ni 22.88 3.52 1.76
Fe 21.12 5.28 1.76
Ni 24.64 3.52 0
Fe 26.4 5.28 0
Ni 26.4 3.52 1.76
Ni 24.64 5.28 1.76
Ni 0 7.04 0
Ni 1.76 8.8 0
Ni 1.76 7.04 1.76
Ni 0 8.8 1.76
Ni 3.52 7.04 0
Fe 5.28 8.8 0
Fe 5.28 7.04 1.76
Fe 3.52 8.8 1.76
Ni 7.04 7.04 0
Ni 8.8 8.8 0
Ni 8.8 7.04 1.76
Ni 7.04 8.8 1.76
Fe 10.56 7.04 0
Fe 12.32 8.8 0
Ni 12.32 7.04 1.76
Ni 10.56 8.8 1.76
Ni 14.08 7.04 0
Ni 15.84 8.8 0
Fe 15.84 7.04 1.76
Ni 14.08 8.8 1.76
Ni 17.6 7.04 0
Ni 19.36 8.8 0
Ni 19.36 7.04 1.76
Ni 17.6 8.8 1.76
Ni 21.12 7.04 0
Ni 22.88 8.8 0
Fe 22.88 7.04 1.76
Ni 21.12 8.8 1.76
Ni 24.64 7.04 0
Ni 26.4 8.8 0
Ni 26.4 7.04 1.76
Ni 24.64 8.8 1.76
Ni 0 10.56 0
Ni 1.76 12.32 0
Ni 1.76 10.56 1.76
Ni 0 12.32 1.76
Ni 3.52 10.56 0
Ni 5.28 12.32 0
Fe 5.28 10.56 1.76
Ni 3.52 12.32 1.76
Fe 7.04 10.56 0
Ni 8.8 12.32 0
Ni 8.8 10.56 1.76
Ni 7.04 12.32 1.76
Ni 10.56 10.56 0
Ni 12.32 12.32 0
Ni 12.32 10.56 1.76
Ni 10.56 12.32 1.76
Cr 14.08 10.56 0
Fe 15.84 12.32 0
Ni 15.84 10.56 1.76
Ni 14.08 12.32 1.76
Ni 17.6 10.56 0
Fe 19.36 12.32 0
Fe 19.36 10.56 1.76
Ni 17.6 12.32 1.76
Fe 21.12 10.56 0
Ni 22.88 12.32 0
Ni 22.88 10.56 1.76
Ni 21.12 12.32 1.76
Ni 24.64 10.56 0
Ni 26.4 12.32 0
Ni 26.4 10.56 1.76
Fe 24.64 12.32 1.76
Ni 0 14.08 0
Ni 1.76 15.84 0
Ni 1.76 14.08 1.76
Fe 0 15.84 1.76
Fe 3.52 14.08 0
Ni 5.28 15.84 0
Fe 5.28 14.08 1.76
Ni 3.52 15.84 1.76
Cr 7.04 14.08 0
Fe 8.8 15.84 0
Fe 8.8 14.08 1.76
Ni 7.04 15.84 1.76
Ni 10.56 14.08 0
Ni 12.32 15.84 0
Ni 12.32 14.08 1.76
Fe 10.56 15.84 1.76
Ni 14.08 14.08 0
Ni 15.84 15.84 0
Ni 15.84 14.08 1.76
Ni 14.08 15.84 1.76
Ni 17.6 14.08 0
Ni 19.36 15.84 0
Fe 19.36 14.08 1.76
Ni 17.6 15.84 1.76
Ni 21.12 14.08 0
Ni 22.88 15.84 0
Ni 22.88 14.08 1.76
Ni 21.12 15.84 1.76
Ni 24.64 14.08 0
Ni 26.4 15.84 0
Fe 26.4 14.08 1.76
Ni 24.64 15.84 1.76
Fe 0 17.6 0
Ni 1.76 19.36 0
Ni 1.76 17.6 1.76
Ni 0 19.36 1.76
Ni 3.52 17.6 0
Ni 5.28 19.36 0
Ni 5.28 17.6 1.76
Fe 3.52 19.36 1.76
Ni 7.04 17.6 0
Fe 8.8 19.36 0
Cr 8.8 17.6 1.76
Ni 7.04 19.36 1.76
Cr 10.56 17.6 0
Ni 12.32 19.36 0
Ni 12.32 17.6 1.76
Ni 10.56 19.36 1.76
Ni 14.08 17.6 0
Fe 15.84 19.36 0
Ni 15.84 17.6 1.76
Ni 14.08 19.36 1.76
Ni 17.6 17.6 0
Ni 19.36 19.36 0
Ni 19.36 17.6 1.76
Ni 17.6 19.36 1.76
Ni 21.12 17.6 0
Cr 22.88 19.36 0
Ni 22.88 17.6 1.76
Ni 21.12 19.36 1.76
Ni 24.64 17.6 0
Cr 26.4 19.36 0
Cr 26.4 17.6 1.76
Ni 24.64 19.36 1.76
Ni 0 21.12 0
Ni 1.76 22.88 0
Ni 1.76 21.12 1.76
Fe 0 22.88 1.76
Ni 3.52 21.12 0
Ni 5.28 22.88 0
Ni 5.28 21.12 1.76
Ni 3.52 22.88 1.76
Cr 7.04 21.12 0
Ni 8.8 22.88 0
Ni 8.8 21.12 1.76
Ni 7.04 22.88 1.76
Ni 10.56 21.12 0
Ni 12.32 22.88 0
Ni 12.32 21.12 1.76
Ni 10.56 22.88 1.76
Ni 14.08 21.12 0
Ni 15.84 22.88 0
Ni 15.84 21.12 1.76
Ni 14.08 22.88 1.76
Ni 17.6 21.12 0
Ni 19.36 22.88 0
Cr 19.36 21.12 1.76
Ni 17.6 22.88 1.76
Fe 21.12 21.12 0
Ni 22.88 22.88 0
Ni 22.88 21.12 1.76
Ni 21.12 22.88 1.76
Ni 24.64 21.12 0
Fe 26.4 22.88 0
Ni 26.4 21.12 1.76
Ni 24.64 22.88 1.76
Ni 0 24.64 0
Ni 1.76 26.4 0
Ni 1.76 24.64 1.76
Fe 0 26.4 1.76
Ni 3.52 24.64 0
Ni 5.28 26.4 0
Ni 5.28 24.64 1.76
Ni 3.52 26.4 1.76
Ni 7.04 24.64 0
Ni 8.8 26.4 0
Cr 8.8 24.64 1.76
Ni 7.04 26.4 1.76
Ni 10.56 24.64 0
Fe 12.32 26.4 0
Ni 12.32 24.64 1.76
Fe 10.56 26.4 1.76
Ni 14.08 24.64 0
Ni 15.84 26.4 0
Fe 15.84 24.64 1.76
Ni 14.08 26.4 1.76
Ni 17.6 24.64 0
Ni 19.36 26.4 0
Ni 19.36 24.64 1.76
Ni 17.6 26.4 1.76
Fe 21.12 24.64 0
Ni 22.88 26.4 0
Ni 22.88 24.64 1.76
Ni 21.12 26.4 1.76
Ni 24.64 24.64 0
Ni 26.4 26.4 0
Ni 26.4 24.64 1.76
Ni 24.64 26.4 1.76
Fe 0 0 3.52
Ni 1.76 1.76 3.52
Ni 1.76 0 5.28
Ni 0 1.76 5.28
Ni 3.52 0 3.52
Ni 5.28 1.76 3.52
Ni 5.28 0 5.28
Ni 3.52 1.76 5.28
Ni 7.04 0 3.52
Ni 8.8 1.76 3.52
Ni 8.8 0 5.28
Fe 7.04 1.76 5.28
Fe 10.56 0 3.52
Fe 12.32 1.76 3.52
Ni 12.32 0 5.28
Fe 10.56 1.76 5.28
Ni 14.08 0 3.52
Ni 15.84 1.76 3.52
Ni 15.84 0 5.28
Ni 14.08 1.76 5.28
Ni 17.6 0 3.52
Ni 19.36 1.76 3.52
Ni 19.36 0 5.28
Ni 17.6 1.76 5.28
Fe 21.12 0 3.52
Ni 22.88 1.76 3.52
Fe 22.88 0 5.28
Ni 21.12 1.76 5.28
Ni 24.64 0 3.52
Ni 26.4 1.76 3.52
Ni 26.4 0 5.28
Ni 24.64 1.76 5.28
Ni 0 3.52 3.52
Ni 1.76 5.28 3.52
Ni 1.76 3.52 5.28
Ni 0 5.28 5.28
Ni 3.52 3.52 3.52
Ni 5.28 5.28 3.52
Ni 5.28 3.52 5.28
Ni 3.52 5.28 5.28
Ni 7.04 3.52 3.52
Ni 8.8 5.28 3.52
Ni 8.8 3.52 5.28
Ni 7.04 5.28 5.28
Ni 10.56 3.52 3.52
Ni 12.32 5.28 3.52
Ni 12.32 3.52 5.28
Ni 10.56 5.28 5.28
Ni 14.08 3.52 3.52
Fe 15.84 5.28 3.52
Fe 15.84 3.52 5.28
Ni 14.08 5.28 5.28
Fe 17.6 3.52 3.52
Ni 19.36 5.28 3.52
Ni 19.36 3.52 5.28
Fe 17.6 5.28 5.28
Cr 21.12 3.52 3.52
Ni 22.88 5.28 3.52
Ni 22.88 3.52 5.28
Fe 21.12 5.28 5.28
Fe 24.64 3.52 3.52
Ni 26.4 5.28 3.52
Cr 26.4 3.52 5.28
Ni 24.64 5.28 5.28
Ni 0 7.04 3.52
Ni 1.76 8.8 3.52
Cr 1.76 7.04 5.28
Ni 0 8.8 5.28
Fe 3.52 7.04 3.52
Ni 5.28 8.8 3.52
Fe 5.28 7.04 5.28
Fe 3.52 8.8 5.28
Ni 7.04 7.04 3.52
Ni 8.8 8.8 3.52
Fe 8.8 7.04 5.28
Ni 7.04 8.8 5.28
Fe 10.56 7.04 3.52
Ni 12.32 8.8 3.52
Ni 12.32 7.04 5.28
Ni 10.56 8.8 5.28
Fe 14.08 7.04 3.52
Ni 15.84 8.8 3.52
Ni 15.84 7.04 5.28
Ni 14.08 8.8 5.28
Ni 17.6 7.04 3.52
Ni 19.36 8.8 3.52
Ni 19.36 7.04 5.28
Ni 17.6 8.8 5.28
Ni 21.12 7.04 3.52
Ni 22.88 8.8 3.52
Ni 22.88 7.04 5.28
Cr 21.12 8.8 5.28
Ni 24.64 7.04 3.52
Ni 26.4 8.8 3.52
Fe 26.4 7.04 5.28
Ni 24.64 8.8 5.28
Ni 0 10.56 3.52
Ni 1.76 12.32 3.52
Ni 1.76 10.56 5.28
Ni 0 12.32 5.28
Ni 3.52 10.56 3.52
Fe 5.28 12.32 3.52
Ni 5.28 10.56 5.28
Ni 3.52 12.32 5.28
Ni 7.04 10.56 3.52
Ni 8.8 12.32 3.52
Ni 8.8 10.56 5.28
Ni 7.04 12.32 5.28
Fe 10.56 10.56 3.52
Fe 12.32 12.32 3.52
Ni 12.32 10.56 5.28
Ni 10.56 12.32 5.28
Cr 14.08 10.56 3.52
Fe 15.84 12.32 3.52
Ni 15.84 10.56 5.28
Ni 14.08 12.32 5.28
Ni 17.6 10.56 3.52
Ni 19.36 12.32 3.52
Ni 19.36 10.56 5.28
Ni 17.6 12.32 5.28
Ni 21.12 10.56 3.52
Ni 22.88 12.32 3.52
Ni 22.88 10.56 5.28
Ni 21.12 12.32 5.28
Ni 24.64 10.56 3.52
Ni 26.4 12.32 3.52
Ni 26.4 10.56 5.28
Ni 24.64 12.32 5.28
Ni 0 14.08 3.52
Ni 1.76 15.84 3.52
Fe 1.76 14.08 5.28
Ni 0 15.84 5.28
Fe 3.52 14.08 3.52
Ni 5.28 15.84 3.52
Fe 5.28 14.08 5.28
Fe 3.52 15.84 5.28
Fe 7.04 14.08 3.52
Ni 8.8 15.84 3.52
Ni 8.8 14.08 5.28
Fe 7.04 15.84 5.28
Ni 10.56 14.08 3.52
Ni 12.32 15.84 3.52
Ni 12.32 14.08 5.28
Cr 10.56 15.84 5.28
Ni 14.08 14.08 3.52
Ni 15.84 15.84 3.52
Ni 15.84 14.08 5.28
Ni 14.08 15.84 5.28
Ni 17.6 14.08 3.52
Fe 19.36 15.84 3.52
Ni 19.36 14.08 5.28
Fe 17.6 15.84 5.28
Fe 21.12 14.08 3.52
Ni 22.88 15.84 3.52
Ni 22.88 14.08 5.28
Fe 21.12 15.84 5.28
Ni 24.64 14.08 3.52
Ni 26.4 15.84 3.52
Fe 26.4 14.08 5.28
Ni 24.64 15.84 5.28
Ni 0 17.6 3.52
Ni 1.76 19.36 3.52
Ni 1.76 17.6 5.28
Ni 0 19.36 5.28
Fe 3.52 17.6 3.52
Ni 5.28 19.36 3.52
Fe 5.28 17.6 5.28
Ni 3.52 19.36 5.28
Fe 7.04 17.6 3.52
Ni 8.8 19.36 3.52
Ni 8.8 17.6 5.28
Ni 7.04 19.36 5.28
Ni 10.56 17.6 3.52
Ni 12.32 19.36 3.52
Ni 12.32 17.6 5.28
Ni 10.56 19.36 5.28
Fe 14.08 17.6 3.52
Ni 15.84 19.36 3.52
Ni 15.84 17.6 5.28
Fe 14.08 19.36 5.28
Ni 17.6 17.6 3.52
Fe 19.36 19.36 3.52
Ni 19.36 17.6 5.28
Ni 17.6 19.36 5.28
Fe 21.12 17.6 3.52
Ni 22.88 19.36 3.52
Ni 22.88 17.6 5.28
Fe 21.12 19.36 5.28
Fe 24.64 17.6 3.52
Ni 26.4 19.36 3.52
Ni 26.4 17.6 5.28
Ni 24.64 19.36 5.28
Ni 0 21.12 3.52
Ni 1.76 22.88 3.52
Ni 1.76 21.12 5.28
Ni 0 22.88 5.28
Ni 3.52 21.12 3.52
Ni 5.28 22.88 3.52
Ni 5.28 21.12 5.28
Ni 3.52 22.88 5.28
Ni 7.04 21.12 3.52
Ni 8.8 22.88 3.52
Ni 8.8 21.12 5.28
Ni 7.04 22.88 5.28
Ni 10.56 21.12 3.52
Ni 12.32 22.88 3.52
Cr 12.32 21.12 5.28
Ni 10.56 22.88 5.28
Ni 14.08 21.12 3.52
Ni 15.84 22.88 3.52
Ni 15.84 21.12 5.28
Fe 14.08 22.88 5.28
Ni 17.6 21.12 3.52
Ni 19.36 22.88 3.52
Ni 19.36 21.12 5.28
Ni 17.6 22.88 5.28
Ni 21.12 21.12 3.52
Ni 22.88 22.88 3.52
Ni 22.88 21.12 5.28
Ni 21.12 22.88 5.28
Fe 24.64 21.12 3.52
Ni 26.4 22.88 3.52
Fe 26.4 21.12 5.28
Ni 24.64 22.88 5.28
Ni 0 24.64 3.52
Ni 1.76 26.4 3.52
Fe 1.76 24.64 5.28
Fe 0 26.4 5.28
Fe 3.52 24.64 3.52
Ni 5.28 26.4 3.52
Ni 5.28 24.64 5.28
Cr 3.52 26.4 5.28
Ni 7.04 24.64 3.52
Fe 8.8 26.4 3.52
Ni 8.8 24.64 5.28
Ni 7.04 26.4 5.28
Fe 10.56 24.64 3.52
Ni 12.32 26.4 3.52
Ni 12.32 24.64 5.28
Ni 10.56 26.4 5.28
Fe 14.08 24.64 3.52
Ni 15.84 26.4 3.52
Ni 15.84 24.64 5.28
Ni 14.08 26.4 5.28
Ni 17.6 24.64 3.52
Fe 19.36 26.4 3.52
Ni 19.36 24.64 5.28
Ni 17.6 26.4 5.28
Ni 21.12 24.64 3.52
Cr 22.88 26.4 3.52
Ni 22.88 24.64 5.28
Fe 21.12 26.4 5.28
Ni 24.64 24.64 3.52
Ni 26.4 26.4 3.52
Ni 26.4 24.64 5.28
Ni 24.64 26.4 5.28
Ni 0 0 7.04
Ni 1.76 1.76 7.04
Ni 1.76 0 8.8
Ni 0 1.76 8.8
Ni 3.52 0 7.04
Ni 5.28 1.76 7.04
Ni 5.28 0 8.8
Ni 3.52 1.76 8.8
Fe 7.04 0 7.04
Ni 8.8 1.76 7.04
Fe 8.8 0 8.8
Ni 7.04 1.76 8.8
Fe 10.56 0 7.04
Ni 12.32 1.76 7.04
Cr 12.32 0 8.8
Cr 10.56 1.76 8.8
Ni 14.08 0 7.04
Ni 15.84 1.76 7.04
Ni 15.84 0 8.8
Ni 14.08 1.76 8.8
Ni 17.6 0 7.04
Fe 19.36 1.76 7.04
Cr 19.36 0 8.8
Ni 17.6 1.76 8.8
Ni 21.12 0 7.04
Ni 22.88 1.76 7.04
Ni 22.88 0 8.8
Fe 21.12 1.76 8.8
Fe 24.64 0 7.04
Ni 26.4 1.76 7.04
Fe 26.4 0 8.8
Ni 24.64 1.76 8.8
Ni 0 3.52 7.04
Ni 1.76 5.28 7.04
Ni 1.76 3.52 8.8
Ni 0 5.28 8.8
Ni 3.52 3.52 7.04
Ni 5.28 5.28 7.04
Ni 5.28 3.52 8.8
Ni 3.52 5.28 8.8
Ni 7.04 3.52 7.04
Cr 8.8 5.28 7.04
Ni 8.8 3.52 8.8
Ni 7.04 5.28 8.8
Ni 10.56 3.52 7.04
Cr 12.32 5.28 7.04
Ni 12.32 3.52 8.8
Fe 10.56 5.28 8.8
Ni 14.08 3.52 7.04
Ni 15.84 5.28 7.04
Ni 15.84 3.52 8.8
Fe 14.08 5.28 8.8
Ni 17.6 3.52 7.04
Fe 19.36 5.28 7.04
Fe 19.36 3.52 8.8
Ni 17.6 5.28 8.8
Ni 21.12 3.52 7.04
Fe 22.88 5.28 7.04
Ni 22.88 3.52 8.8
Ni 21.12 5.28 8.8
Ni 24.64 3.52 7.04
Ni 26.4 5.28 7.04
Ni 26.4 3.52 8.8
Ni 24.64 5.28 8.8
Ni 0 7.04 7.04
Ni 1.76 8.8 7.04
Ni 1.76 7.04 8.8
Ni 0 8.8 8.8
Ni 3.52 7.04 7.04
Fe 5.28 8.8 7.04
Ni 5.28 7.04 8.8
Ni 3.52 8.8 8.8
Ni 7.04 7.04 7.04
Fe 8.8 8.8 7.04
Cr 8.8 7.04 8.8
Fe 7.04 8.8 8.8
Ni 10.56 7.04 7.04
Ni 12.32 8.8 7.04
Ni 12.32 7.04 8.8
Ni 10.56 8.8 8.8
Fe 14.08 7.04 7.04
Ni 15.84 8.8 7.04
Fe 15.84 7.04 8.8
Ni 14.08 8.8 8.8
Ni 17.6 7.04 7.04
Fe 19.36 8.8 7.04
Fe 19.36 7.04 8.8
Ni 17.6 8.8 8.8
Ni 21.12 7.04 7.04
Ni 22.88 8.8 7.04
Ni 22.88 7.04 8.8
Fe 21.12 8.8 8.8
Ni 24.64 7.04 7.04
Ni 26.4 8.8 7.04
Ni 26.4 7.04 8.8
Ni 24.64 8.8 8.8
Ni 0 10.56 7.04
Ni 1.76 12.32 7.04
Ni 1.76 10.56 8.8
Ni 0 12.32 8.8
Ni 3.52 10.56 7.04
Ni 5.28 12.32 7.04
Ni 5.28 10.56 8.8
Ni 3.52 12.32 8.8
Ni 7.04 10.56 7.04
Ni 8.8 12.32 7.04
Ni 8.8 10.56 8.8
Ni 7.04 12.32 8.8
Ni 10.56 10.56 7.04
Fe 12.32 12.32 7.04
Fe 12.32 10.56 8.8
Ni 10.56 12.32 8.8
Ni 14.08 10.56 7.04
Ni 15.84 12.32 7.04
Ni 15.84 10.56 8.8
Cr 14.08 12.32 8.8
Ni 17.6 10.56 7.04
Ni 19.36 12.32 7.04
Ni 19.36 10.56 8.8
Ni 17.6 12.32 8.8
Ni 21.12 10.56 7.04
Ni 22.88 12.32 7.04
Fe 22.88 10.56 8.8
Ni 21.12 12.32 8.8
Ni 24.64 10.56 7.04
Ni 26.4 12.32 7.04
Ni 26.4 10.56 8.8
Ni 24.64 12.32 8.8
Ni 0 14.08 7.04
Fe 1.76 15.84 7.04
Ni 1.76 14.08 8.8
Ni 0 15.84 8.8
Ni 3.52 14.08 7.04
Ni 5.28 15.84 7.04
Ni 5.28 14.08 8.8
Ni 3.52 15.84 8.8
Ni 7.04 14.08 7.04
Cr 8.8 15.84 7.04
Ni 8.8 14.08 8.8
Ni 7.04 15.84 8.8
Ni 10.56 14.08 7.04
Ni 12.32 15.84 7.04
Ni 12.32 14.08 8.8
Cr 10.56 15.84 8.8
Fe 14.08 14.08 7.04
Cr 15.84 15.84 7.04
Ni 15.84 14.08 8.8
Fe 14.08 15.84 8.8
Ni 17.6 14.08 7.04
Ni 19.36 15.84 7.04
Ni 19.36 14.08 8.8
Ni 17.6 15.84 8.8
Ni 21.12 14.08 7.04
Ni 22.88 15.84 7.04
Ni 22.88 14.08 8.8
Ni 21.12 15.84 8.8
Ni 24.64 14.08 7.04
Ni 26.4 15.84 7.04
Ni 26.4 14.08 8.8
Ni 24.64 15.84 8.8
Ni 0 17.6 7.04
Ni 1.76 19.36 7.04
Ni 1.76 17.6 8.8
Ni 0 19.36 8.8
Ni 3.52 17.6 7.04
Ni 5.28 19.36 7.04
Ni 5.28 17.6 8.8
Ni 3.52 19.36 8.8
Ni 7.04 17.6 7.04
Ni 8.8 19.36 7.04
Fe 8.8 17.6 8.8
Ni 7.04 19.36 8.8
Ni 10.56 17.6 7.04
Ni 12.32 19.36 7.04
Ni 12.32 17.6 8.8
Ni 10.56 19.36 8.8
Ni 14.08 17.6 7.04
Ni 15.84 19.36 7.04
Fe 15.84 17.6 8.8
Fe 14.08 19.36 8.8
Ni 17.6 17.6 7.04
Ni 19.36 19.36 7.04
Ni 19.36 17.6 8.8
Ni 17.6 19.36 8.8
Cr 21.12 17.6 7.04
Ni 22.88 19.36 7.04
Ni 22.88 17.6 8.8
Ni 21.12 19.36 8.8
Ni 24.64 17.6 7.04
Ni 26.4 19.36 7.04
Ni 26.4 17.6 8.8
Fe 24.64 19.36 8.8
Fe 0 21.12 7.04
Ni 1.76 22.88 7.04
Ni 1.76 21.12 8.8
Ni 0 22.88 8.8
Ni 3.52 21.12 7.04
Ni 5.28 22.88 7.04
Ni 5.28 21.12 8.8
Ni 3.52 22.88 8.8
Ni 7.04 21.12 7.04
Fe 8.8 22.88 7.04
Ni 8.8 21.12 8.8
Cr 7.04 22.88 8.8
Ni 10.56 21.12 7.04
Fe 12.32 22.88 7.04
Ni 12.32 21.12 8.8
Ni 10.56 22.88 8.8
Ni 14.08 21.12 7.04
Ni 15.84 22.88 7.04
Ni 15.84 21.12 8.8
Ni 14.08 22.88 8.8
Ni 17.6 21.12 7.04
Cr 19.36 22.88 7.04
Ni 19.36 21.12 8.8
Fe 17.6 22.88 8.8
Fe 21.12 21.12 7.04
Ni 22.88 22.88 7.04
Ni 22.88 21.12 8.8
Ni 21.12 22.88 8.8
Fe 24.64 21.12 7.04
Ni 26.4 22.88 7.04
Fe 26.4 21.12 8.8
Fe 24.64 22.88 8.8
Ni 0 24.64 7.04
Ni 1.76 26.4 7.04
Ni 1.76 24.64 8.8
Ni 0 26.4 8.8
Fe 3.52 24.64 7.04
Fe 5.28 26.4 7.04
Ni 5.28 24.64 8.8
Ni 3.52 26.4 8.8
Ni 7.04 24.64 7.04
Ni 8.8 26.4 7.04
Fe 8.8 24.64 8.8
Ni 7.04 26.4 8.8
Ni 10.56 24.64 7.04
Ni 12.32 26.4 7.04
Ni 12.32 24.64 8.8
Ni 10.56 26.4 8.8
Ni 14.08 24.64 7.04
Ni 15.84 26.4 7.04
Ni 15.84 24.64 8.8
Fe 14.08 26.4 8.8
Ni 17.6 24.64 7.04
Ni 19.36 26.4 7.04
Ni 19.36 24.64 8.8
Ni 17.6 26.4 8.8
Ni 21.12 24.64 7.04
Ni 22.88 26.4 7.04
Ni 22.88 24.64 8.8
Ni 21.12 26.4 8.8
Ni 24.64 24.64 7.04
Ni 26.4 26.4 7.04
Cr 26.4 24.64 8.8
Fe 24.64 26.4 8.8
Ni 0 0 10.56
Ni 1.76 1.76 10.56
Ni 1.76 0 12.32
Ni 0 1.76 12.32
Ni 3.52 0 10.56
Ni 5.28 1.76 10.56
Ni 5.28 0 12.32
Ni 3.52 1.76 12.32
Ni 7.04 0 10.56
Ni 8.8 1.76 10.56
Ni 8.8 0 12.32
Fe 7.04 1.76 12.32
Ni 10.56 0 10.56
Ni 12.32 1.76 10.56
Fe 12.32 0 12.32
Ni 10.56 1.76 12.32
Ni 14.08 0 10.56
Fe 15.84 1.76 10.56
Ni 15.84 0 12.32
Ni 14.08 1.76 12.32
Ni 17.6 0 10.56
Fe 19.36 1.76 10.56
Fe 19.36 0 12.32
Ni 17.6 1.76 12.32
Fe 21.12 0 10.56
Fe 22.88 1.76 10.56
Ni 22.88 0 12.32
Ni 21.12 1.76 12.32
Ni 24.64 0 10.56
Ni 26.4 1.76 10.56
Ni 26.4 0 12.32
Ni 24.64 1.76 12.32
Ni 0 3.52 10.56
Ni 1.76 5.28 10.56
Ni 1.76 3.52 12.32
Ni 0 5.28 12.32
Ni 3.52 3.52 10.56
Ni 5.28 5.28 10.56
Ni 5.28 3.52 12.32
Fe 3.52 5.28 12.32
Ni 7.04 3.52 10.56
Ni 8.8 5.28 10.56
Ni 8.8 3.52 12.32
Fe 7.04 5.28 12.32
Fe 10.56 3.52 10.56
Ni 12.32 5.28 10.56
Cr 12.32 3.52 12.32
Ni 10.56 5.28 12.32
Ni 14.08 3.52 10.56
Fe 15.84 5.28 10.56
Ni 15.84 3.52 12.32
Ni 14.08 5.28 12.32
Fe 17.6 3.52 10.56
Ni 19.36 5.28 10.56
Ni 19.36 3.52 12.32
Ni 17.6 5.28 12.32
Ni 21.12 3.52 10.56
Ni 22.88 5.28 10.56
Cr 22.88 3.52 12.32
Ni 21.12 5.28 12.32
Ni 24.64 3.52 10.56
Ni 26.4 5.28 10.56
Cr 26.4 3.52 12.32
Ni 24.64 5.28 12.32
Fe 0 7.04 10.56
Ni 1.76 8.8 10.56
Ni 1.76 7.04 12.32
Ni 0 8.8 12.32
Ni 3.52 7.04 10.56
Ni 5.28 8.8 10.56
Ni 5.28 7.04 12.32
Fe 3.52 8.8 12.32
Ni 7.04 7.04 10.56
Ni 8.8 8.8 10.56
Ni 8.8 7.04 12.32
Ni 7.04 8.8 12.32
Ni 10.56 7.04 10.56
Ni 12.32 8.8 10.56
Fe 12.32 7.04 12.32
Ni 10.56 8.8 12.32
Ni 14.08 7.04 10.56
Fe 15.84 8.8 10.56
Ni 15.84 7.04 12.32
Ni 14.08 8.8 12.32
Fe 17.6 7.04 10.56
Ni 19.36 8.8 10.56
Ni 19.36 7.04 12.32
Fe 17.6 8.8 12.32
Ni 21.12 7.04 10.56
Ni 22.88 8.8 10.56
Ni 22.88 7.04 12.32
Ni 21.12 8.8 12.32
Ni 24.64 7.04 10.56
Fe 26.4 8.8 10.56
Ni 26.4 7.04 12.32
Ni 24.64 8.8 12.32
Ni 0 10.56 10.56
Ni 1.76 12.32 10.56
Ni 1.76 10.56 12.32
Fe 0 12.32 12.32
Fe 3.52 10.56 10.56
Ni 5.28 12.32 10.56
Ni 5.28 10.56 12.32
Ni 3.52 12.32 12.32
Fe 7.04 10.56 10.56
Ni 8.8 12.32 10.56
Cr 8.8 10.56 12.32
Fe 7.04 12.32 12.32
Ni 10.56 10.56 10.56
Ni 12.32 12.32 10.56
Fe 12.32 10.56 12.32
Ni 10.56 12.32 12.32
Ni 14.08 10.56 10.56
Ni 15.84 12.32 10.56
Ni 15.84 10.56 12.32
Ni 14.08 12.32 12.32
Ni 17.6 10.56 10.56
Ni 19.36 12.32 10.56
Fe 19.36 10.56 12.32
Fe 17.6 12.32 12.32
Ni 21.12 10.56 10.56
Ni 22.88 12.32 10.56
Ni 22.88 10.56 12.32
Ni 21.12 12.32 12.32
Cr 24.64 10.56 10.56
Ni 26.4 12.32 10.56
Ni 26.4 10.56 12.32
Fe 24.64 12.32 12.32
Ni 0 14.08 10.56
Fe 1.76 15.84 10.56
Ni 1.76 14.08 12.32
Ni 0 15.84 12.32
Ni 3.52 14.08 10.56
Ni 5.28 15.84 10.56
Fe 5.28 14.08 12.32
Ni 3.52 15.84 12.32
Ni 7.04 14.08 10.56
Cr 8.8 15.84 10.56
Ni 8.8 14.08 12.32
Fe 7.04 15.84 12.32
Ni 10.56 14.08 10.56
Ni 12.32 15.84 10.56
Ni 12.32 14.08 12.32
Ni 10.56 15.84 12.32
Ni 14.08 14.08 10.56
Ni 15.84 15.84 10.56
Fe 15.84 14.08 12.32
Ni 14.08 15.84 12.32
Ni 17.6 14.08 10.56
Ni 19.36 15.84 10.56
Ni 19.36 14.08 12.32
Ni 17.6 15.84 12.32
Ni 21.12 14.08 10.56
Ni 22.88 15.84 10.56
Ni 22.88 14.08 12.32
Ni 21.12 15.84 12.32
Ni 24.64 14.08 10.56
Fe 26.4 15.84 10.56
Ni 26.4 14.08 12.32
Ni 24.64 15.84 12.32
Ni 0 17.6 10.56
Ni 1.76 19.36 10.56
Ni 1.76 17.6 12.32
Ni 0 19.36 12.32
Ni 3.52 17.6 10.56
Ni 5.28 19.36 10.56
Ni 5.28 17.6 12.32
Fe 3.52 19.36 12.32
Ni 7.04 17.6 10.56
Ni 8.8 19.36 10.56
Fe 8.8 17.6 12.32
Fe 7.04 19.36 12.32
Ni 10.56 17.6 10.56
Ni 12.32 19.36 10.56
Ni 12.32 17.6 12.32
Fe 10.56 19.36 12.32
Ni 14.08 17.6 10.56
Fe 15.84 19.36 10.56
Ni 15.84 17.6 12.32
Fe 14.08 19.36 12.32
Ni 17.6 17.6 10.56
Ni 19.36 19.36 10.56
Fe 19.36 17.6 12.32
Fe 17.6 19.36 12.32
Ni 21.12 17.6 10.56
Ni 22.88 19.36 10.56
Ni 22.88 17.6 12.32
Ni 21.12 19.36 12.32
Ni 24.64 17.6 10.56
Ni 26.4 19.36 10.56
Ni 26.4 17.6 12.32
Ni 24.64 19.36 12.32
Ni 0 21.12 10.56
Ni 1.76 22.88 10.56
Ni 1.76 21.12 12.32
Ni 0 22.88 12.32
Ni 3.52 21.12 10.56
Fe 5.28 22.88 10.56
Fe 5.28 21.12 12.32
Ni 3.52 22.88 12.32
Fe 7.04 21.12 10.56
Ni 8.8 22.88 10.56
Ni 8.8 21.12 12.32
Fe 7.04 22.88 12.32
Ni 10.56 21.12 10.56
Ni 12.32 22.88 10.56
Ni 12.32 21.12 12.32
Ni 10.56 22.88 12.32
Ni 14.08 21.12 10.56
Ni 15.84 22.88 10.56
Ni 15.84 21.12 12.32
Cr 14.08 22.88 12.32
Fe 17.6 21.12 10.56
Ni 19.36 22.88 10.56
Ni 19.36 21.12 12.32
Cr 17.6 22.88 12.32
Fe 21.12 21.12 10.56
Ni 22.88 22.88 10.56
Ni 22.88 21.12 12.32
Ni 21.12 22.88 12.32
Ni 24.64 21.12 10.56
Ni 26.4 22.88 10.56
Fe 26.4 21.12 12.32
Ni 24.64 22.88 12.32
Fe 0 24.64 10.56
Fe 1.76 26.4 10.56
Fe 1.76 24.64 12.32
Ni 0 26.4 12.32
Ni 3.52 24.64 10.56
Ni 5.28 26.4 10.56
Ni 5.28 24.64 12.32
Ni 3.52 26.4 12.32
Ni 7.04 24.64 10.56
Ni 8.8 26.4 10.56
Ni 8.8 24.64 12.32
Ni 7.04 26.4 12.32
Cr 10.56 24.64 10.56
Ni 12.32 26.4 10.56
Ni 12.32 24.64 12.32
Fe 10.56 26.4 12.32
Ni 14.08 24.64 10.56
Fe 15.84 26.4 10.56
Ni 15.84 24.64 12.32
Ni 14.08 26.4 12.32
Ni 17.6 24.64 10.56
Ni 19.36 26.4 10.56
Ni 19.36 24.64 12.32
Ni 17.6 26.4 12.32
Ni 21.12 24.64 10.56
Ni 22.88 26.4 10.56
Fe 22.88 24.64 12.32
Fe 21.12 26.4 12.32
Ni 24.64 24.64 10.56
Ni 26.4 26.4 10.56
Ni 26.4 24.64 12.32
Ni 24.64 26.4 12.32
Fe 0 0 14.08
Ni 1.76 1.76 14.08
Ni 1.76 0 15.84
Ni 0 1.76 15.84
Ni 3.52 0 14.08
Ni 5.28 1.76 14.08
Cr 5.28 0 15.84
Fe 3.52 1.76 15.84
Ni 7.04 0 14.08
Ni 8.8 1.76 14.08
Cr 8.8 0 15.84
Ni 7.04 1.76 15.84
Ni 10.56 0 14.08
Ni 12.32 1.76 14.08
Ni 12.32 0 15.84
Ni 10.56 1.76 15.84
Ni 14.08 0 14.08
Ni 15.84 1.76 14.08
Ni 15.84 0 15.84
Fe 14.08 1.76 15.84
Ni 17.6 0 14.08
Ni 19.36 1.76 14.08
Ni 19.36 0 15.84
Fe 17.6 1.76 15.84
Ni 21.12 0 14.08
Fe 22.88 1.76 14.08
Cr 22.88 0 15.84
Fe 21.12 1.76 15.84
Ni 24.64 0 14.08
Ni 26.4 1.76 14.08
Ni 26.4 0 15.84
Ni 24.64 1.76 15.84
Ni 0 3.52 14.08
Ni 1.76 5.28 14.08
Fe 1.76 3.52 15.84
Ni 0 5.28 15.84
Ni 3.52 3.52 14.08
Ni 5.28 5.28 14.08
Fe 5.28 3.52 15.84
Ni 3.52 5.28 15.84
Ni 7.04 3.52 14.08
Ni 8.8 5.28 14.08
Ni 8.8 3.52 15.84
Ni 7.04 5.28 15.84
Ni 10.56 3.52 14.08
Ni 12.32 5.28 14.08
Ni 12.32 3.52 15.84
Fe 10.56 5.28 15.84
Fe 14.08 3.52 14.08
Ni 15.84 5.28 14.08
Ni 15.84 3.52 15.84
Ni 14.08 5.28 15.84
Cr 17.6 3.52 14.08
Ni 19.36 5.28 14.08
Fe 19.36 3.52 15.84
Ni 17.6 5.28 15.84
Ni 21.12 3.52 14.08
Ni 22.88 5.28 14.08
Ni 22.88 3.52 15.84
Ni 21.12 5.28 15.84
Fe 24.64 3.52 14.08
Ni 26.4 5.28 14.08
Ni 26.4 3.52 15.84
Ni 24.64 5.28 15.84
Ni 0 7.04 14.08
Ni 1.76 8.8 14.08
Fe 1.76 7.04 15.84
Ni 0 8.8 15.84
Ni 3.52 7.04 14.08
Ni 5.28 8.8 14.08
Ni 5.28 7.04 15.84
Ni 3.52 8.8 15.84
Ni 7.04 7.04 14.08
Fe 8.8 8.8 14.08
Ni 8.8 7.04 15.84
Ni 7.04 8.8 15.84
Ni 10.56 7.04 14.08
Fe 12.32 8.8 14.08
Ni 12.32 7.04 15.84
Ni 10.56 8.8 15.84
Ni 14.08 7.04 14.08
Fe 15.84 8.8 14.08
Cr 15.84 7.04 15.84
Ni 14.08 8.8 15.84
Fe 17.6 7.04 14.08
Ni 19.36 8.8 14.08
Ni 19.36 7.04 15.84
Ni 17.6 8.8 15.84
Ni 21.12 7.04 14.08
Ni 22.88 8.8 14.08
Ni 22.88 7.04 15.84
Ni 21.12 8.8 15.84
Ni 24.64 7.04 14.08
Ni 26.4 8.8 14.08
Fe 26.4 7.04 15.84
Ni 24.64 8.8 15.84
Fe 0 10.56 14.08
Ni 1.76 12.32 14.08
Cr 1.76 10.56 15.84
Cr 0 12.32 15.84
Ni 3.52 10.56 14.08
Ni 5.28 12.32 14.08
Ni 5.28 10.56 15.84
Ni 3.52 12.32 15.84
Ni 7.04 10.56 14.08
Ni 8.8 12.32 14.08
Ni 8.8 10.56 15.84
Ni 7.04 12.32 15.84
Ni 10.56 10.56 14.08
Ni 12.32 12.32 14.08
Ni 12.32 10.56 15.84
Ni 10.56 12.32 15.84
Fe 14.08 10.56 14.08
Ni 15.84 12.32 14.08
Fe 15.84 10.56 15.84
Ni 14.08 12.32 15.84
Ni 17.6 10.56 14.08
Ni 19.36 12.32 14.08
Ni 19.36 10.56 15.84
Fe 17.6 12.32 15.84
Ni 21.12 10.56 14.08
Ni 22.88 12.32 14.08
Ni 22.88 10.56 15.84
Ni 21.12 12.32 15.84
Ni 24.64 10.56 14.08
Fe 26.4 12.32 14.08
Ni 26.4 10.56 15.84
Fe 24.64 12.32 15.84
Ni 0 14.08 14.08
Ni 1.76 15.84 14.08
Fe 1.76 14.08 15.84
Ni 0 15.84 15.84
Ni 3.52 14.08 14.08
Ni 5.28 15.84 14.08
Fe 5.28 14.08 15.84
Fe 3.52 15.84 15.84
Ni 7.04 14.08 14.08
Fe 8.8 15.84 14.08
Fe 8.8 14.08 15.84
Fe 7.04 15.84 15.84
Ni 10.56 14.08 14.08
Fe 12.32 15.84 14.08
Fe 12.32 14.08 15.84
Fe 10.56 15.84 15.84
Ni 14.08 14.08 14.08
Ni 15.84 15.84 14.08
Fe 15.84 14.08 15.84
Ni 14.08 15.84 15.84
Ni 17.6 14.08 14.08
Ni 19.36 15.84 14.08
Fe 19.36 14.08 15.84
Ni 17.6 15.84 15.84
Fe 21.12 14.08 14.08
Ni 22.88 15.84 14.08
Ni 22.88 14.08 15.84
Ni 21.12 15.84 15.84
Fe 24.64 14.08 14.08
Ni 26.4 15.84 14.08
Fe 26.4 14.08 15.84
Ni 24.64 15.84 15.84
Ni 0 17.6 14.08
Ni 1.76 19.36 14.08
Ni 1.76 17.6 15.84
Ni 0 19.36 15.84
Ni 3.52 17.6 14.08
Ni 5.28 19.36 14.08
Ni 5.28 17.6 15.84
Ni 3.52 19.36 15.84
Ni 7.04 17.6 14.08
Ni 8.8 19.36 14.08
Ni 8.8 17.6 15.84
Ni 7.04 19.36 15.84
Ni 10.56 17.6 14.08
Ni 12.32 19.36 14.08
Ni 12.32 17.6 15.84
Ni 10.56 19.36 15.84
Ni 14.08 17.6 14.08
Fe 15.84 19.36 14.08
Ni 15.84 17.6 15.84
Ni 14.08 19.36 15.84
Ni 17.6 17.6 14.08
Ni 19.36 19.36 14.08
Ni 19.36 17.6 15.84
Fe 17.6 19.36 15.84
Ni 21.12 17.6 14.08
Ni 22.88 19.36 14.08
Ni 22.88 17.6 15.84
Fe 21.12 19.36 15.84
Ni 24.64 17.6 14.08
Ni 26.4 19.36 14.08
Ni 26.4 17.6 15.84
Ni 24.64 19.36 15.84
Ni 0 21.12 14.08
Ni 1.76 22.88 14.08
Ni 1.76 21.12 15.84
Ni 0 22.88 15.84
Ni 3.52 21.12 14.08
Ni 5.28 22.88 14.08
Fe 5.28 21.12 15.84
Ni 3.52 22.88 15.84
Fe 7.04 21.12 14.08
Ni 8.8 22.88 14.08
Fe 8.8 21.12 15.84
Ni 7.04 22.88 15.84
Fe 10.56 21.12 14.08
Ni 12.32 22.88 14.08
Ni 12.32 21.12 15.84
Fe 10.56 22.88 15.84
Ni 14.08 21.12 14.08
Ni 15.84 22.88 14.08
Ni 15.84 21.12 15.84
Ni 14.08 22.88 15.84
Ni 17.6 21.12 14.08
Ni 19.36 22.88 14.08
Ni 19.36 21.12 15.84
Ni 17.6 22.88 15.84
Ni 21.12 21.12 14.08
Ni 22.88 22.88 14.08
Ni 22.88 21.12 15.84
Ni 21.12 22.88 15.84
Ni 24.64 21.12 14.08
Fe 26.4 22.88 14.08
Fe 26.4 21.12 15.84
Ni 24.64 22.88 15.84
Ni 0 24.64 14.08
Ni 1.76 26.4 14.08
Ni 1.76 24.64 15.84
Cr 0 26.4 15.84
Ni 3.52 24.64 14.08
Ni 5.28 26.4 14.08
Ni 5.28 24.64 15.84
Fe 3.52 26.4 15.84
Ni 7.04 24.64 14.08
Ni 8.8 26.4 14.08
Fe 8.8 24.64 15.84
Ni 7.04 26.4 15.84
Cr 10.56 24.64 14.08
Ni 12.32 26.4 14.08
Ni 12.32 24.64 15.84
Ni 10.56 26.4 15.84
Ni 14.08 24.64 14.08
Ni 15.84 26.4 14.08
Ni 15.84 24.64 15.84
Ni 14.08 26.4 15.84
Cr 17.6 24.64 14.08
Ni 19.36 26.4 14.08
Ni 19.36 24.64 15.84
Fe 17.6 26.4 15.84
Ni 21.12 24.64 14.08
Fe 22.88 26.4 14.08
Ni 22.88 24.64 15.84
Ni 21.12 26.4 15.84
Ni 24.64 24.64 14.08
Ni 26.4 26.4 14.08
Ni 26.4 24.64 15.84
Ni 24.64 26.4 15.84
Ni 0 0 17.6
Ni 1.76 1.76 17.6
Ni 1.76 0 19.36
Ni 0 1.76 19.36
Ni 3.52 0 17.6
Ni 5.28 1.76 17.6
Ni 5.28 0 19.36
Ni 3.52 1.76 19.36
Ni 7.04 0 17.6
Ni 8.8 1.76 17.6
Ni 8.8 0 19.36
Ni 7.04 1.76 19.36
Fe 10.56 0 17.6
Ni 12.32 1.76 17.6
Ni 12.32 0 19.36
Fe 10.56 1.76 19.36
Ni 14.08 0 17.6
Cr 15.84 1.76 17.6
Ni 15.84 0 19.36
Ni 14.08 1.76 19.36
Ni 17.6 0 17.6
Ni 19.36 1.76 17.6
Fe 19.36 0 19.36
Ni 17.6 1.76 19.36
Ni 21.12 0 17.6
Ni 22.88 1.76 17.6
Fe 22.88 0 19.36
Ni 21.12 1.76 19.36
Ni 24.64 0 17.6
Ni 26.4 1.76 17.6
Ni 26.4 0 19.36
Ni 24.64 1.76 19.36
Ni 0 3.52 17.6
Fe 1.76 5.28 17.6
Fe 1.76 3.52 19.36
Ni 0 5.28 19.36
Ni 3.52 3.52 17.6
Ni 5.28 5.28 17.6
Ni 5.28 3.52 19.36
Fe 3.52 5.28 19.36
Ni 7.04 3.52 17.6
Ni 8.8 5.28 17.6
Ni 8.8 3.52 19.36
Fe 7.04 5.28 19.36
Ni 10.56 3.52 17.6
Fe 12.32 5.28 17.6
Ni 12.32 3.52 19.36
Ni 10.56 5.28 19.36
Ni 14.08 3.52 17.6
Ni 15.84 5.28 17.6
Ni 15.84 3.52 19.36
Ni 14.08 5.28 19.36
Ni 17.6 3.52 17.6
Ni 19.36 5.28 17.6
Fe 19.36 3.52 19.36
Ni 17.6 5.28 19.36
Fe 21.12 3.52 17.6
Ni 22.88 5.28 17.6
Ni 22.88 3.52 19.36
Ni 21.12 5.28 19.36
Cr 24.64 3.52 17.6
Ni 26.4 5.28 17.6
Fe 26.4 3.52 19.36
Ni 24.64 5.28 19.36
Fe 0 7.04 17.6
Ni 1.76 8.8 17.6
Ni 1.76 7.04 19.36
Ni 0 8.8 19.36
Ni 3.52 7.04 17.6
Ni 5.28 8.8 17.6
Ni 5.28 7.04 19.36
Fe 3.52 8.8 19.36
Ni 7.04 7.04 17.6
Ni 8.8 8.8 17.6
Ni 8.8 7.04 19.36
Ni 7.04 8.8 19.36
Fe 10.56 7.04 17.6
Ni 12.32 8.8 17.6
Fe 12.32 7.04 19.36
Cr 10.56 8.8 19.36
Ni 14.08 7.04 17.6
Ni 15.84 8.8 17.6
Ni 15.84 7.04 19.36
Ni 14.08 8.8 19.36
Ni 17.6 7.04 17.6
Ni 19.36 8.8 17.6
Fe 19.36 7.04 19.36
Fe 17.6 8.8 19.36
Fe 21.12 7.04 17.6
Cr 22.88 8.8 17.6
Ni 22.88 7.04 19.36
Ni 21.12 8.8 19.36
Ni 24.64 7.04 17.6
Ni 26.4 8.8 17.6
Ni 26.4 7.04 19.36
Fe 24.64 8.8 19.36
Ni 0 10.56 17.6
Ni 1.76 12.32 17.6
Ni 1.76 10.56 19.36
Ni 0 12.32 19.36
Ni 3.52 10.56 17.6
Fe 5.28 12.32 17.6
Ni 5.28 10.56 19.36
Ni 3.52 12.32 19.36
Ni 7.04 10.56 17.6
Ni 8.8 12.32 17.6
Ni 8.8 10.56 19.36
Fe 7.04 12.32 19.36
Ni 10.56 10.56 17.6
Fe 12.32 12.32 17.6
Ni 12.32 10.56 19.36
Ni 10.56 12.32 19.36
Ni 14.08 10.56 17.6
Ni 15.84 12.32 17.6
Ni 15.84 10.56 19.36
Ni 14.08 12.32 19.36
Fe 17.6 10.56 17.6
Ni 19.36 12.32 17.6
Fe 19.36 10.56 19.36
Ni 17.6 12.32 19.36
Fe 21.12 10.56 17.6
Ni 22.88 12.32 17.6
Ni 22.88 10.56 19.36
Ni 21.12 12.32 19.36
Fe 24.64 10.56 17.6
Ni 26.4 12.32 17.6
Ni 26.4 10.56 19.36
Cr 24.64 12.32 19.36
Ni 0 14.08 17.6
Ni 1.76 15.84 17.6
Ni 1.76 14.08 19.36
Ni 0 15.84 19.36
Ni 3.52 14.08 17.6
Ni 5.28 15.84 17.6
Ni 5.28 14.08 19.36
Ni 3.52 15.84 19.36
Ni 7.04 14.08 17.6
Ni 8.8 15.84 17.6
Ni 8.8 14.08 19.36
Ni 7.04 15.84 19.36
Ni 10.56 14.08 17.6
Ni 12.32 15.84 17.6
Ni 12.32 14.08 19.36
Ni 10.56 15.84 19.36
Ni 14.08 14.08 17.6
Fe 15.84 15.84 17.6
Ni 15.84 14.08 19.36
Ni 14.08 15.84 19.36
Ni 17.6 14.08 17.6
Fe 19.36 15.84 17.6
Ni 19.36 14.08 19.36
Ni 17.6 15.84 19.36
Ni 21.12 14.08 17.6
Fe 22.88 15.84 17.6
Ni 22.88 14.08 19.36
Ni 21.12 15.84 19.36
Ni 24.64 14.08 17.6
Ni 26.4 15.84 17.6
Ni 26.4 14.08 19.36
Ni 24.64 15.84 19.36
Ni 0 17.6 17.6
Ni 1.76 19.36 17.6
Ni 1.76 17.6 19.36
Ni 0 19.36 19.36
Ni 3.52 17.6 17.6
Ni 5.28 19.36 17.6
Ni 5.28 17.6 19.36
Ni 3.52 19.36 19.36
Ni 7.04 17.6 17.6
Ni 8.8 19.36 17.6
Ni 8.8 17.6 19.36
Ni 7.04 19.36 19.36
Ni 10.56 17.6 17.6
Ni 12.32 19.36 17.6
Ni 12.32 17.6 19.36
Ni 10.56 19.36 19.36
Cr 14.08 17.6 17.6
Ni 15.84 19.36 17.6
Ni 15.84 17.6 19.36
Ni 14.08 19.36 19.36
Ni 17.6 17.6 17.6
Fe 19.36 19.36 17.6
Fe 19.36 17.6 19.36
Ni 17.6 19.36 19.36
Ni 21.12 17.6 17.6
Ni 22.88 19.36 17.6
Ni 22.88 17.6 19.36
Ni 21.12 19.36 19.36
Ni 24.64 17.6 17.6
Ni 26.4 19.36 17.6
Ni 26.4 17.6 19.36
Fe 24.64 19.36 19.36
Ni 0 21.12 17.6
Ni 1.76 22.88 17.6
Ni 1.76 21.12 19.36
Ni 0 22.88 19.36
Ni 3.52 21.12 17.6
Ni 5.28 22.88 17.6
Ni 5.28 21.12 19.36
Ni 3.52 22.88 19.36
Ni 7.04 21.12 17.6
Ni 8.8 22.88 17.6
Ni 8.8 21.12 19.36
Fe 7.04 22.88 19.36
Ni 10.56 21.12 17.6
Ni 12.32 22.88 17.6
Ni 12.32 21.12 19.36
Ni 10.56 22.88 19.36
Ni 14.08 21.12 17.6
Ni 15.84 22.88 17.6
Ni 15.84 21.12 19.36
Ni 14.08 22.88 19.36
Ni 17.6 21.12 17.6
Ni 19.36 22.88 17.6
Ni 19.36 21.12 19.36
Ni 17.6 22.88 19.36
Ni 21.12 21.12 17.6
Ni 22.88 22.88 17.6
Ni 22.88 21.12 19.36
Ni 21.12 22.88 19.36
Ni 24.64 21.12 17.6
Ni 26.4 22.88 17.6
Ni 26.4 21.12 19.36
Fe 24.64 22.88 19.36
Fe 0 24.64 17.6
Ni 1.76 26.4 17.6
Fe 1.76 24.64 19.36
Fe 0 26.4 19.36
Fe 3.52 24.64 17.6
Ni 5.28 26.4 17.6
Ni 5.28 24.64 19.36
Ni 3.52 26.4 19.36
Ni 7.04 24.64 17.6
Ni 8.8 26.4 17.6
Ni 8.8 24.64 19.36
Ni 7.04 26.4 19.36
Ni 10.56 24.64 17.6
Ni 12.32 26.4 17.6
Ni 12.32 24.64 19.36
Fe 10.56 26.4 19.36
Ni 14.08 24.64 17.6
Ni 15.84 26.4 17.6
Ni 15.84 24.64 19.36
Ni 14.08 26.4 19.36
Ni 17.6 24.64 17.6
Ni 19.36 26.4 17.6
Ni 19.36 24.64 19.36
Ni 17.6 26.4 19.36
Ni 21.12 24.64 17.6
Fe 22.88 26.4 17.6
Ni 22.88 24.64 19.36
Ni 21.12 26.4 19.36
Ni 24.64 24.64 17.6
Ni 26.4 26.4 17.6
Ni 26.4 24.64 19.36
Fe 24.64 26.4 19.36
Fe 0 0 21.12
Ni 1.76 1.76 21.12
Ni 1.76 0 22.88
Ni 0 1.76 22.88
Ni 3.52 0 21.12
Ni 5.28 1.76 21.12
Fe 5.28 0 22.88
Fe 3.52 1.76 22.88
Ni 7.04 0 21.12
Ni 8.8 1.76 21.12
Ni 8.8 0 22.88
Fe 7.04 1.76 22.88
Ni 10.56 0 21.12
Fe 12.32 1.76 21.12
Ni 12.32 0 22.88
Cr 10.56 1.76 22.88
Ni 14.08 0 21.12
Ni 15.84 1.76 21.12
Ni 15.84 0 22.88
Ni 14.08 1.76 22.88
Ni 17.6 0 21.12
Ni 19.36 1.76 21.12
Ni 19.36 0 22.88
Ni 17.6 1.76 22.88
Cr 21.12 0 21.12
Ni 22.88 1.76 21.12
Ni 22.88 0 22.88
Ni 21.12 1.76 22.88
Fe 24.64 0 21.12
Fe 26.4 1.76 21.12
Ni 26.4 0 22.88
Ni 24.64 1.76 22.88
Ni 0 3.52 21.12
Ni 1.76 5.28 21.12
Fe 1.76 3.52 22.88
Ni 0 5.28 22.88
Ni 3.52 3.52 21.12
Fe 5.28 5.28 21.12
Ni 5.28 3.52 22.88
Fe 3.52 5.28 22.88
Ni 7.04 3.52 21.12
Ni 8.8 5.28 21.12
Ni 8.8 3.52 22.88
Ni 7.04 5.28 22.88
Ni 10.56 3.52 21.12
Fe 12.32 5.28 21.12
Fe 12.32 3.52 22.88
Ni 10.56 5.28 22.88
Ni 14.08 3.52 21.12
Fe 15.84 5.28 21.12
Ni 15.84 3.52 22.88
Ni 14.08 5.28 22.88
Ni 17.6 3.52 21.12
Fe 19.36 5.28 21.12
Ni 19.36 3.52 22.88
Ni 17.6 5.28 22.88
Ni 21.12 3.52 21.12
Ni 22.88 5.28 21.12
Ni 22.88 3.52 22.88
Ni 21.12 5.28 22.88
Ni 24.64 3.52 21.12
Ni 26.4 5.28 21.12
Ni 26.4 3.52 22.88
Ni 24.64 5.28 22.88
Ni 0 7.04 21.12
Ni 1.76 8.8 21.12
Ni 1.76 7.04 22.88
Fe 0 8.8 22.88
Ni 3.52 7.04 21.12
Ni 5.28 8.8 21.12
Ni 5.28 7.04 22.88
Ni 3.52 8.8 22.88
Ni 7.04 7.04 21.12
Ni 8.8 8.8 21.12
Ni 8.8 7.04 22.88
Ni 7.04 8.8 22.88
Ni 10.56 7.04 21.12